<?xml version="1.0" encoding="UTF-8"?>

<!-- generated on 2025-01-09 13:58:53 by Eclipse SUMO sumo Version v1_20_0+0085-e155ab8699b
<configuration xmlns:xsi="http://www.w3.org/2001/XMLSchema-instance" xsi:noNamespaceSchemaLocation="http://sumo.dlr.de/xsd/sumoConfiguration.xsd">

    <input>
        <net-file value="/home/jian/sumo/project/rayRL/one_way_xml/one_way.net.xml"/>
        <route-files value="/home/jian/sumo/project/rayRL/one_way_xml/one_way.rou.xml"/>
    </input>

    <output>
        <output-prefix value="10-"/>
        <tripinfo-output value="/home/jian/sumo/project/rayRL/one_way_xml/data/default/tripinfo/tripinfo-output.xml"/>
    </output>

    <time>
        <step-length value="1.0"/>
    </time>

    <processing>
        <step-method.ballistic value="True"/>
    </processing>

    <report>
        <no-warnings value="True"/>
        <no-step-log value="True"/>
    </report>

    <traci_server>
        <remote-port value="47457"/>
    </traci_server>

    <gui_only>
        <quit-on-end value="True"/>
        <start value="True"/>
    </gui_only>

</configuration>
-->

<tripinfos xmlns:xsi="http://www.w3.org/2001/XMLSchema-instance" xsi:noNamespaceSchemaLocation="http://sumo.dlr.de/xsd/tripinfo_file.xsd">
    <tripinfo id="f_0.0" depart="0.00" departLane="E0_0" departPos="7.20" departSpeed="0.00" departDelay="0.00" arrival="1520.00" arrivalLane="E5_0" arrivalPos="300.00" arrivalSpeed="13.45" duration="1520.00" routeLength="10003.87" waitingTime="736.00" waitingCount="1" stopTime="0.00" timeLoss="798.12" rerouteNo="0" devices="tripinfo_f_0.0" vType="car_0" speedFactor="1.03" vaporized=""/>
    <tripinfo id="f_0.1" depart="360.00" departLane="E0_0" departPos="7.20" departSpeed="0.00" departDelay="0.00" arrival="2299.00" arrivalLane="E5_0" arrivalPos="300.00" arrivalSpeed="13.46" duration="1939.00" routeLength="10003.87" waitingTime="1111.00" waitingCount="2" stopTime="0.00" timeLoss="1194.07" rerouteNo="0" devices="tripinfo_f_0.1" vType="car_0" speedFactor="0.97" vaporized=""/>
    <tripinfo id="f_0.2" depart="720.00" departLane="E0_0" departPos="7.20" departSpeed="0.00" departDelay="0.00" arrival="2301.00" arrivalLane="E5_0" arrivalPos="300.00" arrivalSpeed="13.04" duration="1581.00" routeLength="10003.87" waitingTime="754.00" waitingCount="2" stopTime="0.00" timeLoss="859.10" rerouteNo="0" devices="tripinfo_f_0.2" vType="car_0" speedFactor="1.01" vaporized=""/>
    <tripinfo id="f_0.3" depart="1080.00" departLane="E0_0" departPos="7.20" departSpeed="0.00" departDelay="0.00" arrival="2303.00" arrivalLane="E5_0" arrivalPos="300.00" arrivalSpeed="13.66" duration="1223.00" routeLength="10003.87" waitingTime="425.00" waitingCount="1" stopTime="0.00" timeLoss="500.99" rerouteNo="0" devices="tripinfo_f_0.3" vType="car_0" speedFactor="1.04" vaporized=""/>
    <tripinfo id="f_0.4" depart="1440.00" departLane="E0_0" departPos="7.20" departSpeed="0.00" departDelay="0.00" arrival="2305.00" arrivalLane="E5_0" arrivalPos="300.00" arrivalSpeed="13.39" duration="865.00" routeLength="10003.87" waitingTime="69.00" waitingCount="1" stopTime="0.00" timeLoss="143.43" rerouteNo="0" devices="tripinfo_f_0.4" vType="car_0" speedFactor="1.02" vaporized=""/>
    <tripinfo id="f_0.5" depart="1800.00" departLane="E0_0" departPos="7.20" departSpeed="0.00" departDelay="0.00" arrival="3864.00" arrivalLane="E5_0" arrivalPos="300.00" arrivalSpeed="11.53" duration="2064.00" routeLength="10003.87" waitingTime="1197.00" waitingCount="2" stopTime="0.00" timeLoss="1276.20" rerouteNo="0" devices="tripinfo_f_0.5" vType="car_0" speedFactor="0.92" vaporized=""/>
    <tripinfo id="f_0.6" depart="2160.00" departLane="E0_0" departPos="7.20" departSpeed="0.00" departDelay="0.00" arrival="3866.00" arrivalLane="E5_0" arrivalPos="300.00" arrivalSpeed="13.69" duration="1706.00" routeLength="10003.87" waitingTime="836.00" waitingCount="2" stopTime="0.00" timeLoss="983.87" rerouteNo="0" devices="tripinfo_f_0.6" vType="car_0" speedFactor="1.02" vaporized=""/>
    <tripinfo id="f_0.7" depart="2520.00" departLane="E0_0" departPos="7.20" departSpeed="0.00" departDelay="0.00" arrival="4619.00" arrivalLane="E5_0" arrivalPos="300.00" arrivalSpeed="12.59" duration="2099.00" routeLength="10003.87" waitingTime="1256.00" waitingCount="3" stopTime="0.00" timeLoss="1333.50" rerouteNo="0" devices="tripinfo_f_0.7" vType="car_0" speedFactor="0.94" vaporized=""/>
    <tripinfo id="f_0.8" depart="2880.00" departLane="E0_0" departPos="7.20" departSpeed="0.00" departDelay="0.00" arrival="4621.00" arrivalLane="E5_0" arrivalPos="300.00" arrivalSpeed="12.76" duration="1741.00" routeLength="10003.87" waitingTime="896.00" waitingCount="2" stopTime="0.00" timeLoss="996.40" rerouteNo="0" devices="tripinfo_f_0.8" vType="car_0" speedFactor="0.97" vaporized=""/>
    <tripinfo id="f_0.9" depart="3240.00" departLane="E0_0" departPos="7.20" departSpeed="0.00" departDelay="0.00" arrival="5396.00" arrivalLane="E5_0" arrivalPos="300.00" arrivalSpeed="11.88" duration="2156.00" routeLength="10003.87" waitingTime="1299.00" waitingCount="2" stopTime="0.00" timeLoss="1378.86" rerouteNo="0" devices="tripinfo_f_0.9" vType="car_0" speedFactor="0.93" vaporized=""/>
</tripinfos>
