<?xml version="1.0" encoding="UTF-8"?>

<!-- generated on 2025-01-09 13:58:56 by Eclipse SUMO sumo Version v1_20_0+0085-e155ab8699b
<configuration xmlns:xsi="http://www.w3.org/2001/XMLSchema-instance" xsi:noNamespaceSchemaLocation="http://sumo.dlr.de/xsd/sumoConfiguration.xsd">

    <input>
        <net-file value="/home/jian/sumo/project/rayRL/one_way_xml/one_way.net.xml"/>
        <route-files value="/home/jian/sumo/project/rayRL/one_way_xml/one_way.rou.xml"/>
    </input>

    <output>
        <output-prefix value="11-"/>
        <tripinfo-output value="/home/jian/sumo/project/rayRL/one_way_xml/data/default/tripinfo/tripinfo-output.xml"/>
    </output>

    <time>
        <step-length value="1.0"/>
    </time>

    <processing>
        <step-method.ballistic value="True"/>
    </processing>

    <report>
        <no-warnings value="True"/>
        <no-step-log value="True"/>
    </report>

    <traci_server>
        <remote-port value="56267"/>
    </traci_server>

    <gui_only>
        <quit-on-end value="True"/>
        <start value="True"/>
    </gui_only>

</configuration>
-->

<tripinfos xmlns:xsi="http://www.w3.org/2001/XMLSchema-instance" xsi:noNamespaceSchemaLocation="http://sumo.dlr.de/xsd/tripinfo_file.xsd">
    <tripinfo id="f_0.0" depart="0.00" departLane="E0_0" departPos="7.20" departSpeed="0.00" departDelay="0.00" arrival="1520.00" arrivalLane="E5_0" arrivalPos="300.00" arrivalSpeed="13.45" duration="1520.00" routeLength="10003.87" waitingTime="736.00" waitingCount="1" stopTime="0.00" timeLoss="798.15" rerouteNo="0" devices="tripinfo_f_0.0" vType="car_0" speedFactor="1.03" vaporized=""/>
    <tripinfo id="f_0.1" depart="328.00" departLane="E0_0" departPos="7.20" departSpeed="0.00" departDelay="0.73" arrival="2300.00" arrivalLane="E5_0" arrivalPos="300.00" arrivalSpeed="13.37" duration="1972.00" routeLength="10003.87" waitingTime="1148.00" waitingCount="5" stopTime="0.00" timeLoss="1227.40" rerouteNo="0" devices="tripinfo_f_0.1" vType="car_0" speedFactor="0.97" vaporized=""/>
    <tripinfo id="f_0.2" depart="655.00" departLane="E0_0" departPos="7.20" departSpeed="0.00" departDelay="0.45" arrival="2302.00" arrivalLane="E5_0" arrivalPos="300.00" arrivalSpeed="12.89" duration="1647.00" routeLength="10003.87" waitingTime="823.00" waitingCount="2" stopTime="0.00" timeLoss="925.08" rerouteNo="0" devices="tripinfo_f_0.2" vType="car_0" speedFactor="1.01" vaporized=""/>
    <tripinfo id="f_0.3" depart="982.00" departLane="E0_0" departPos="7.20" departSpeed="0.00" departDelay="0.18" arrival="2304.00" arrivalLane="E5_0" arrivalPos="300.00" arrivalSpeed="13.39" duration="1322.00" routeLength="10003.87" waitingTime="525.00" waitingCount="1" stopTime="0.00" timeLoss="599.59" rerouteNo="0" devices="tripinfo_f_0.3" vType="car_0" speedFactor="1.04" vaporized=""/>
    <tripinfo id="f_0.4" depart="1310.00" departLane="E0_0" departPos="7.20" departSpeed="0.00" departDelay="0.91" arrival="2306.00" arrivalLane="E5_0" arrivalPos="300.00" arrivalSpeed="12.73" duration="996.00" routeLength="10003.87" waitingTime="197.00" waitingCount="1" stopTime="0.00" timeLoss="274.10" rerouteNo="0" devices="tripinfo_f_0.4" vType="car_0" speedFactor="1.02" vaporized=""/>
    <tripinfo id="f_0.5" depart="1637.00" departLane="E0_0" departPos="7.20" departSpeed="0.00" departDelay="0.64" arrival="3864.00" arrivalLane="E5_0" arrivalPos="300.00" arrivalSpeed="11.85" duration="2227.00" routeLength="10003.87" waitingTime="1357.00" waitingCount="2" stopTime="0.00" timeLoss="1438.49" rerouteNo="0" devices="tripinfo_f_0.5" vType="car_0" speedFactor="0.92" vaporized=""/>
    <tripinfo id="f_0.6" depart="1964.00" departLane="E0_0" departPos="7.20" departSpeed="0.00" departDelay="0.36" arrival="3866.00" arrivalLane="E5_0" arrivalPos="300.00" arrivalSpeed="13.26" duration="1902.00" routeLength="10003.87" waitingTime="1029.00" waitingCount="2" stopTime="0.00" timeLoss="1179.83" rerouteNo="0" devices="tripinfo_f_0.6" vType="car_0" speedFactor="1.02" vaporized=""/>
    <tripinfo id="f_0.7" depart="2291.00" departLane="E0_0" departPos="7.20" departSpeed="0.00" departDelay="0.09" arrival="3868.00" arrivalLane="E5_0" arrivalPos="300.00" arrivalSpeed="12.21" duration="1577.00" routeLength="10003.87" waitingTime="715.00" waitingCount="1" stopTime="0.00" timeLoss="812.06" rerouteNo="0" devices="tripinfo_f_0.7" vType="car_0" speedFactor="0.94" vaporized=""/>
    <tripinfo id="f_0.8" depart="2619.00" departLane="E0_0" departPos="7.20" departSpeed="0.00" departDelay="0.82" arrival="4609.00" arrivalLane="E5_0" arrivalPos="300.00" arrivalSpeed="13.29" duration="1990.00" routeLength="10003.87" waitingTime="1171.00" waitingCount="2" stopTime="0.00" timeLoss="1245.25" rerouteNo="0" devices="tripinfo_f_0.8" vType="car_0" speedFactor="0.97" vaporized=""/>
    <tripinfo id="f_0.9" depart="2946.00" departLane="E0_0" departPos="7.20" departSpeed="0.00" departDelay="0.54" arrival="4631.00" arrivalLane="E5_0" arrivalPos="300.00" arrivalSpeed="11.72" duration="1685.00" routeLength="10003.87" waitingTime="825.00" waitingCount="3" stopTime="0.00" timeLoss="907.49" rerouteNo="0" devices="tripinfo_f_0.9" vType="car_0" speedFactor="0.93" vaporized=""/>
    <tripinfo id="f_0.10" depart="3273.00" departLane="E0_0" departPos="7.20" departSpeed="0.00" departDelay="0.27" arrival="4633.00" arrivalLane="E5_0" arrivalPos="300.00" arrivalSpeed="13.06" duration="1360.00" routeLength="10003.87" waitingTime="539.00" waitingCount="3" stopTime="0.00" timeLoss="637.73" rerouteNo="0" devices="tripinfo_f_0.10" vType="car_0" speedFactor="1.05" vaporized=""/>
</tripinfos>
