<?xml version="1.0" encoding="UTF-8"?>

<!-- generated on 2025-01-09 13:58:59 by Eclipse SUMO sumo Version v1_20_0+0085-e155ab8699b
<configuration xmlns:xsi="http://www.w3.org/2001/XMLSchema-instance" xsi:noNamespaceSchemaLocation="http://sumo.dlr.de/xsd/sumoConfiguration.xsd">

    <input>
        <net-file value="/home/jian/sumo/project/rayRL/one_way_xml/one_way.net.xml"/>
        <route-files value="/home/jian/sumo/project/rayRL/one_way_xml/one_way.rou.xml"/>
    </input>

    <output>
        <output-prefix value="12-"/>
        <tripinfo-output value="/home/jian/sumo/project/rayRL/one_way_xml/data/default/tripinfo/tripinfo-output.xml"/>
    </output>

    <time>
        <step-length value="1.0"/>
    </time>

    <processing>
        <step-method.ballistic value="True"/>
    </processing>

    <report>
        <no-warnings value="True"/>
        <no-step-log value="True"/>
    </report>

    <traci_server>
        <remote-port value="44449"/>
    </traci_server>

    <gui_only>
        <quit-on-end value="True"/>
        <start value="True"/>
    </gui_only>

</configuration>
-->

<tripinfos xmlns:xsi="http://www.w3.org/2001/XMLSchema-instance" xsi:noNamespaceSchemaLocation="http://sumo.dlr.de/xsd/tripinfo_file.xsd">
    <tripinfo id="f_0.0" depart="0.00" departLane="E0_0" departPos="7.20" departSpeed="0.00" departDelay="0.00" arrival="1520.00" arrivalLane="E5_0" arrivalPos="300.00" arrivalSpeed="13.45" duration="1520.00" routeLength="10003.87" waitingTime="736.00" waitingCount="1" stopTime="0.00" timeLoss="798.10" rerouteNo="0" devices="tripinfo_f_0.0" vType="car_0" speedFactor="1.03" vaporized=""/>
    <tripinfo id="f_0.1" depart="300.00" departLane="E0_0" departPos="7.20" departSpeed="0.00" departDelay="0.00" arrival="2301.00" arrivalLane="E5_0" arrivalPos="300.00" arrivalSpeed="13.46" duration="2001.00" routeLength="10003.87" waitingTime="1174.00" waitingCount="2" stopTime="0.00" timeLoss="1255.85" rerouteNo="0" devices="tripinfo_f_0.1" vType="car_0" speedFactor="0.97" vaporized=""/>
    <tripinfo id="f_0.2" depart="600.00" departLane="E0_0" departPos="7.20" departSpeed="0.00" departDelay="0.00" arrival="2303.00" arrivalLane="E5_0" arrivalPos="300.00" arrivalSpeed="13.04" duration="1703.00" routeLength="10003.87" waitingTime="879.00" waitingCount="2" stopTime="0.00" timeLoss="980.62" rerouteNo="0" devices="tripinfo_f_0.2" vType="car_0" speedFactor="1.01" vaporized=""/>
    <tripinfo id="f_0.3" depart="900.00" departLane="E0_0" departPos="7.20" departSpeed="0.00" departDelay="0.00" arrival="2305.00" arrivalLane="E5_0" arrivalPos="300.00" arrivalSpeed="13.66" duration="1405.00" routeLength="10003.87" waitingTime="605.00" waitingCount="1" stopTime="0.00" timeLoss="683.19" rerouteNo="0" devices="tripinfo_f_0.3" vType="car_0" speedFactor="1.04" vaporized=""/>
    <tripinfo id="f_0.4" depart="1200.00" departLane="E0_0" departPos="7.20" departSpeed="0.00" departDelay="0.00" arrival="2307.00" arrivalLane="E5_0" arrivalPos="300.00" arrivalSpeed="13.39" duration="1107.00" routeLength="10003.87" waitingTime="310.00" waitingCount="1" stopTime="0.00" timeLoss="385.24" rerouteNo="0" devices="tripinfo_f_0.4" vType="car_0" speedFactor="1.02" vaporized=""/>
    <tripinfo id="f_0.5" depart="1500.00" departLane="E0_0" departPos="7.20" departSpeed="0.00" departDelay="0.00" arrival="3093.00" arrivalLane="E5_0" arrivalPos="300.00" arrivalSpeed="11.64" duration="1593.00" routeLength="10003.87" waitingTime="717.00" waitingCount="2" stopTime="0.00" timeLoss="804.72" rerouteNo="0" devices="tripinfo_f_0.5" vType="car_0" speedFactor="0.92" vaporized=""/>
    <tripinfo id="f_0.6" depart="1800.00" departLane="E0_0" departPos="7.20" departSpeed="0.00" departDelay="0.00" arrival="3095.00" arrivalLane="E5_0" arrivalPos="300.00" arrivalSpeed="13.69" duration="1295.00" routeLength="10003.87" waitingTime="477.00" waitingCount="1" stopTime="0.00" timeLoss="573.04" rerouteNo="0" devices="tripinfo_f_0.6" vType="car_0" speedFactor="1.02" vaporized=""/>
    <tripinfo id="f_0.7" depart="2100.00" departLane="E0_0" departPos="7.20" departSpeed="0.00" departDelay="0.00" arrival="3850.00" arrivalLane="E5_0" arrivalPos="300.00" arrivalSpeed="12.53" duration="1750.00" routeLength="10003.87" waitingTime="906.00" waitingCount="2" stopTime="0.00" timeLoss="984.56" rerouteNo="0" devices="tripinfo_f_0.7" vType="car_0" speedFactor="0.94" vaporized=""/>
    <tripinfo id="f_0.8" depart="2400.00" departLane="E0_0" departPos="7.20" departSpeed="0.00" departDelay="0.00" arrival="4611.00" arrivalLane="E5_0" arrivalPos="300.00" arrivalSpeed="13.10" duration="2211.00" routeLength="10003.87" waitingTime="1388.00" waitingCount="2" stopTime="0.00" timeLoss="1466.21" rerouteNo="0" devices="tripinfo_f_0.8" vType="car_0" speedFactor="0.97" vaporized=""/>
    <tripinfo id="f_0.9" depart="2700.00" departLane="E0_0" departPos="7.20" departSpeed="0.00" departDelay="0.00" arrival="4629.00" arrivalLane="E5_0" arrivalPos="300.00" arrivalSpeed="12.16" duration="1929.00" routeLength="10003.87" waitingTime="1062.00" waitingCount="3" stopTime="0.00" timeLoss="1151.02" rerouteNo="0" devices="tripinfo_f_0.9" vType="car_0" speedFactor="0.93" vaporized=""/>
    <tripinfo id="f_0.10" depart="3000.00" departLane="E0_0" departPos="7.20" departSpeed="0.00" departDelay="0.00" arrival="4631.00" arrivalLane="E5_0" arrivalPos="300.00" arrivalSpeed="12.36" duration="1631.00" routeLength="10003.87" waitingTime="769.00" waitingCount="3" stopTime="0.00" timeLoss="908.34" rerouteNo="0" devices="tripinfo_f_0.10" vType="car_0" speedFactor="1.05" vaporized=""/>
    <tripinfo id="f_0.11" depart="3300.00" departLane="E0_0" departPos="7.20" departSpeed="0.00" departDelay="0.00" arrival="4633.00" arrivalLane="E5_0" arrivalPos="300.00" arrivalSpeed="13.46" duration="1333.00" routeLength="10003.87" waitingTime="517.00" waitingCount="1" stopTime="0.00" timeLoss="610.91" rerouteNo="0" devices="tripinfo_f_0.11" vType="car_0" speedFactor="1.01" vaporized=""/>
</tripinfos>
