<?xml version="1.0" encoding="UTF-8"?>

<!-- generated on 2025-01-09 13:59:02 by Eclipse SUMO sumo Version v1_20_0+0085-e155ab8699b
<configuration xmlns:xsi="http://www.w3.org/2001/XMLSchema-instance" xsi:noNamespaceSchemaLocation="http://sumo.dlr.de/xsd/sumoConfiguration.xsd">

    <input>
        <net-file value="/home/jian/sumo/project/rayRL/one_way_xml/one_way.net.xml"/>
        <route-files value="/home/jian/sumo/project/rayRL/one_way_xml/one_way.rou.xml"/>
    </input>

    <output>
        <output-prefix value="13-"/>
        <tripinfo-output value="/home/jian/sumo/project/rayRL/one_way_xml/data/default/tripinfo/tripinfo-output.xml"/>
    </output>

    <time>
        <step-length value="1.0"/>
    </time>

    <processing>
        <step-method.ballistic value="True"/>
    </processing>

    <report>
        <no-warnings value="True"/>
        <no-step-log value="True"/>
    </report>

    <traci_server>
        <remote-port value="37887"/>
    </traci_server>

    <gui_only>
        <quit-on-end value="True"/>
        <start value="True"/>
    </gui_only>

</configuration>
-->

<tripinfos xmlns:xsi="http://www.w3.org/2001/XMLSchema-instance" xsi:noNamespaceSchemaLocation="http://sumo.dlr.de/xsd/tripinfo_file.xsd">
    <tripinfo id="f_0.0" depart="0.00" departLane="E0_0" departPos="7.20" departSpeed="0.00" departDelay="0.00" arrival="1522.00" arrivalLane="E5_0" arrivalPos="300.00" arrivalSpeed="13.45" duration="1522.00" routeLength="10003.87" waitingTime="737.00" waitingCount="1" stopTime="0.00" timeLoss="800.09" rerouteNo="0" devices="tripinfo_f_0.0" vType="car_0" speedFactor="1.03" vaporized=""/>
    <tripinfo id="f_0.1" depart="277.00" departLane="E0_0" departPos="7.20" departSpeed="0.00" departDelay="0.08" arrival="2301.00" arrivalLane="E5_0" arrivalPos="300.00" arrivalSpeed="13.46" duration="2024.00" routeLength="10003.87" waitingTime="1199.00" waitingCount="2" stopTime="0.00" timeLoss="1279.02" rerouteNo="0" devices="tripinfo_f_0.1" vType="car_0" speedFactor="0.97" vaporized=""/>
    <tripinfo id="f_0.2" depart="554.00" departLane="E0_0" departPos="7.20" departSpeed="0.00" departDelay="0.15" arrival="2303.00" arrivalLane="E5_0" arrivalPos="300.00" arrivalSpeed="13.04" duration="1749.00" routeLength="10003.87" waitingTime="925.00" waitingCount="2" stopTime="0.00" timeLoss="1026.70" rerouteNo="0" devices="tripinfo_f_0.2" vType="car_0" speedFactor="1.01" vaporized=""/>
    <tripinfo id="f_0.3" depart="831.00" departLane="E0_0" departPos="7.20" departSpeed="0.00" departDelay="0.23" arrival="2305.00" arrivalLane="E5_0" arrivalPos="300.00" arrivalSpeed="13.66" duration="1474.00" routeLength="10003.87" waitingTime="675.00" waitingCount="1" stopTime="0.00" timeLoss="752.37" rerouteNo="0" devices="tripinfo_f_0.3" vType="car_0" speedFactor="1.04" vaporized=""/>
    <tripinfo id="f_0.4" depart="1108.00" departLane="E0_0" departPos="7.20" departSpeed="0.00" departDelay="0.31" arrival="2307.00" arrivalLane="E5_0" arrivalPos="300.00" arrivalSpeed="13.39" duration="1199.00" routeLength="10003.87" waitingTime="399.00" waitingCount="2" stopTime="0.00" timeLoss="476.86" rerouteNo="0" devices="tripinfo_f_0.4" vType="car_0" speedFactor="1.02" vaporized=""/>
    <tripinfo id="f_0.5" depart="1385.00" departLane="E0_0" departPos="7.20" departSpeed="0.00" departDelay="0.39" arrival="3092.00" arrivalLane="E5_0" arrivalPos="300.00" arrivalSpeed="11.64" duration="1707.00" routeLength="10003.87" waitingTime="841.00" waitingCount="2" stopTime="0.00" timeLoss="919.03" rerouteNo="0" devices="tripinfo_f_0.5" vType="car_0" speedFactor="0.92" vaporized=""/>
    <tripinfo id="f_0.6" depart="1662.00" departLane="E0_0" departPos="7.20" departSpeed="0.00" departDelay="0.46" arrival="3094.00" arrivalLane="E5_0" arrivalPos="300.00" arrivalSpeed="13.69" duration="1432.00" routeLength="10003.87" waitingTime="611.00" waitingCount="1" stopTime="0.00" timeLoss="710.22" rerouteNo="0" devices="tripinfo_f_0.6" vType="car_0" speedFactor="1.02" vaporized=""/>
    <tripinfo id="f_0.7" depart="1939.00" departLane="E0_0" departPos="7.20" departSpeed="0.00" departDelay="0.54" arrival="3849.00" arrivalLane="E5_0" arrivalPos="300.00" arrivalSpeed="12.53" duration="1910.00" routeLength="10003.87" waitingTime="1067.00" waitingCount="3" stopTime="0.00" timeLoss="1144.59" rerouteNo="0" devices="tripinfo_f_0.7" vType="car_0" speedFactor="0.94" vaporized=""/>
    <tripinfo id="f_0.8" depart="2216.00" departLane="E0_0" departPos="7.20" departSpeed="0.00" departDelay="0.62" arrival="3851.00" arrivalLane="E5_0" arrivalPos="300.00" arrivalSpeed="12.72" duration="1635.00" routeLength="10003.87" waitingTime="790.00" waitingCount="2" stopTime="0.00" timeLoss="890.30" rerouteNo="0" devices="tripinfo_f_0.8" vType="car_0" speedFactor="0.97" vaporized=""/>
    <tripinfo id="f_0.9" depart="2493.00" departLane="E0_0" departPos="7.20" departSpeed="0.00" departDelay="0.69" arrival="4627.00" arrivalLane="E5_0" arrivalPos="300.00" arrivalSpeed="12.49" duration="2134.00" routeLength="10003.87" waitingTime="1278.00" waitingCount="2" stopTime="0.00" timeLoss="1356.47" rerouteNo="0" devices="tripinfo_f_0.9" vType="car_0" speedFactor="0.93" vaporized=""/>
    <tripinfo id="f_0.10" depart="2770.00" departLane="E0_0" departPos="7.20" departSpeed="0.00" departDelay="0.77" arrival="4629.00" arrivalLane="E5_0" arrivalPos="300.00" arrivalSpeed="13.81" duration="1859.00" routeLength="10003.87" waitingTime="1002.00" waitingCount="2" stopTime="0.00" timeLoss="1136.92" rerouteNo="0" devices="tripinfo_f_0.10" vType="car_0" speedFactor="1.05" vaporized=""/>
    <tripinfo id="f_0.11" depart="3047.00" departLane="E0_0" departPos="7.20" departSpeed="0.00" departDelay="0.85" arrival="4631.00" arrivalLane="E5_0" arrivalPos="300.00" arrivalSpeed="13.19" duration="1584.00" routeLength="10003.87" waitingTime="729.00" waitingCount="2" stopTime="0.00" timeLoss="862.56" rerouteNo="0" devices="tripinfo_f_0.11" vType="car_0" speedFactor="1.01" vaporized=""/>
    <tripinfo id="f_0.12" depart="3324.00" departLane="E0_0" departPos="7.20" departSpeed="0.00" departDelay="0.92" arrival="4633.00" arrivalLane="E5_0" arrivalPos="300.00" arrivalSpeed="13.33" duration="1309.00" routeLength="10003.87" waitingTime="491.00" waitingCount="1" stopTime="0.00" timeLoss="587.35" rerouteNo="0" devices="tripinfo_f_0.12" vType="car_0" speedFactor="1.02" vaporized=""/>
    <tripinfo id="f_0.13" depart="3600.00" departLane="E0_0" departPos="7.20" departSpeed="0.00" departDelay="0.00" arrival="4635.00" arrivalLane="E5_0" arrivalPos="300.00" arrivalSpeed="13.03" duration="1035.00" routeLength="10003.87" waitingTime="214.00" waitingCount="2" stopTime="0.00" timeLoss="312.52" rerouteNo="0" devices="tripinfo_f_0.13" vType="car_0" speedFactor="1.06" vaporized=""/>
</tripinfos>
