<?xml version="1.0" encoding="UTF-8"?>

<!-- generated on 2025-01-09 13:59:05 by Eclipse SUMO sumo Version v1_20_0+0085-e155ab8699b
<configuration xmlns:xsi="http://www.w3.org/2001/XMLSchema-instance" xsi:noNamespaceSchemaLocation="http://sumo.dlr.de/xsd/sumoConfiguration.xsd">

    <input>
        <net-file value="/home/jian/sumo/project/rayRL/one_way_xml/one_way.net.xml"/>
        <route-files value="/home/jian/sumo/project/rayRL/one_way_xml/one_way.rou.xml"/>
    </input>

    <output>
        <output-prefix value="14-"/>
        <tripinfo-output value="/home/jian/sumo/project/rayRL/one_way_xml/data/default/tripinfo/tripinfo-output.xml"/>
    </output>

    <time>
        <step-length value="1.0"/>
    </time>

    <processing>
        <step-method.ballistic value="True"/>
    </processing>

    <report>
        <no-warnings value="True"/>
        <no-step-log value="True"/>
    </report>

    <traci_server>
        <remote-port value="53607"/>
    </traci_server>

    <gui_only>
        <quit-on-end value="True"/>
        <start value="True"/>
    </gui_only>

</configuration>
-->

<tripinfos xmlns:xsi="http://www.w3.org/2001/XMLSchema-instance" xsi:noNamespaceSchemaLocation="http://sumo.dlr.de/xsd/tripinfo_file.xsd">
    <tripinfo id="f_0.0" depart="0.00" departLane="E0_0" departPos="7.20" departSpeed="0.00" departDelay="0.00" arrival="1520.00" arrivalLane="E5_0" arrivalPos="300.00" arrivalSpeed="13.45" duration="1520.00" routeLength="10003.87" waitingTime="736.00" waitingCount="1" stopTime="0.00" timeLoss="798.26" rerouteNo="0" devices="tripinfo_f_0.0" vType="car_0" speedFactor="1.03" vaporized=""/>
    <tripinfo id="f_0.1" depart="258.00" departLane="E0_0" departPos="7.20" departSpeed="0.00" departDelay="0.86" arrival="2300.00" arrivalLane="E5_0" arrivalPos="300.00" arrivalSpeed="13.37" duration="2042.00" routeLength="10003.87" waitingTime="1216.00" waitingCount="2" stopTime="0.00" timeLoss="1297.25" rerouteNo="0" devices="tripinfo_f_0.1" vType="car_0" speedFactor="0.97" vaporized=""/>
    <tripinfo id="f_0.2" depart="515.00" departLane="E0_0" departPos="7.20" departSpeed="0.00" departDelay="0.71" arrival="2302.00" arrivalLane="E5_0" arrivalPos="300.00" arrivalSpeed="12.89" duration="1787.00" routeLength="10003.87" waitingTime="961.00" waitingCount="3" stopTime="0.00" timeLoss="1064.22" rerouteNo="0" devices="tripinfo_f_0.2" vType="car_0" speedFactor="1.01" vaporized=""/>
    <tripinfo id="f_0.3" depart="772.00" departLane="E0_0" departPos="7.20" departSpeed="0.00" departDelay="0.57" arrival="2304.00" arrivalLane="E5_0" arrivalPos="300.00" arrivalSpeed="13.39" duration="1532.00" routeLength="10003.87" waitingTime="731.00" waitingCount="1" stopTime="0.00" timeLoss="809.88" rerouteNo="0" devices="tripinfo_f_0.3" vType="car_0" speedFactor="1.04" vaporized=""/>
    <tripinfo id="f_0.4" depart="1029.00" departLane="E0_0" departPos="7.20" departSpeed="0.00" departDelay="0.43" arrival="2306.00" arrivalLane="E5_0" arrivalPos="300.00" arrivalSpeed="12.73" duration="1277.00" routeLength="10003.87" waitingTime="478.00" waitingCount="1" stopTime="0.00" timeLoss="554.45" rerouteNo="0" devices="tripinfo_f_0.4" vType="car_0" speedFactor="1.02" vaporized=""/>
    <tripinfo id="f_0.5" depart="1286.00" departLane="E0_0" departPos="7.20" departSpeed="0.00" departDelay="0.29" arrival="3094.00" arrivalLane="E5_0" arrivalPos="300.00" arrivalSpeed="12.52" duration="1808.00" routeLength="10003.87" waitingTime="931.00" waitingCount="2" stopTime="0.00" timeLoss="1019.55" rerouteNo="0" devices="tripinfo_f_0.5" vType="car_0" speedFactor="0.92" vaporized=""/>
    <tripinfo id="f_0.6" depart="1543.00" departLane="E0_0" departPos="7.20" departSpeed="0.00" departDelay="0.14" arrival="3096.00" arrivalLane="E5_0" arrivalPos="300.00" arrivalSpeed="13.60" duration="1553.00" routeLength="10003.87" waitingTime="735.00" waitingCount="1" stopTime="0.00" timeLoss="830.95" rerouteNo="0" devices="tripinfo_f_0.6" vType="car_0" speedFactor="1.02" vaporized=""/>
    <tripinfo id="f_0.7" depart="1801.00" departLane="E0_0" departPos="7.20" departSpeed="0.00" departDelay="1.00" arrival="3849.00" arrivalLane="E5_0" arrivalPos="300.00" arrivalSpeed="12.36" duration="2048.00" routeLength="10003.87" waitingTime="1204.00" waitingCount="3" stopTime="0.00" timeLoss="1282.45" rerouteNo="0" devices="tripinfo_f_0.7" vType="car_0" speedFactor="0.94" vaporized=""/>
    <tripinfo id="f_0.8" depart="2058.00" departLane="E0_0" departPos="7.20" departSpeed="0.00" departDelay="0.86" arrival="3851.00" arrivalLane="E5_0" arrivalPos="300.00" arrivalSpeed="12.46" duration="1793.00" routeLength="10003.87" waitingTime="953.00" waitingCount="2" stopTime="0.00" timeLoss="1047.59" rerouteNo="0" devices="tripinfo_f_0.8" vType="car_0" speedFactor="0.97" vaporized=""/>
    <tripinfo id="f_0.9" depart="2315.00" departLane="E0_0" departPos="7.20" departSpeed="0.00" departDelay="0.71" arrival="4631.00" arrivalLane="E5_0" arrivalPos="300.00" arrivalSpeed="12.46" duration="2316.00" routeLength="10003.87" waitingTime="1456.00" waitingCount="2" stopTime="0.00" timeLoss="1538.51" rerouteNo="0" devices="tripinfo_f_0.9" vType="car_0" speedFactor="0.93" vaporized=""/>
    <tripinfo id="f_0.10" depart="2572.00" departLane="E0_0" departPos="7.20" departSpeed="0.00" departDelay="0.57" arrival="4633.00" arrivalLane="E5_0" arrivalPos="300.00" arrivalSpeed="13.71" duration="2061.00" routeLength="10003.87" waitingTime="1204.00" waitingCount="3" stopTime="0.00" timeLoss="1339.44" rerouteNo="0" devices="tripinfo_f_0.10" vType="car_0" speedFactor="1.05" vaporized=""/>
    <tripinfo id="f_0.11" depart="2829.00" departLane="E0_0" departPos="7.20" departSpeed="0.00" departDelay="0.43" arrival="4635.00" arrivalLane="E5_0" arrivalPos="300.00" arrivalSpeed="13.23" duration="1806.00" routeLength="10003.87" waitingTime="939.00" waitingCount="2" stopTime="0.00" timeLoss="1084.39" rerouteNo="0" devices="tripinfo_f_0.11" vType="car_0" speedFactor="1.01" vaporized=""/>
    <tripinfo id="f_0.12" depart="3086.00" departLane="E0_0" departPos="7.20" departSpeed="0.00" departDelay="0.28" arrival="4637.00" arrivalLane="E5_0" arrivalPos="300.00" arrivalSpeed="13.03" duration="1551.00" routeLength="10003.87" waitingTime="729.00" waitingCount="1" stopTime="0.00" timeLoss="828.77" rerouteNo="0" devices="tripinfo_f_0.12" vType="car_0" speedFactor="1.02" vaporized=""/>
    <tripinfo id="f_0.13" depart="3343.00" departLane="E0_0" departPos="7.20" departSpeed="0.00" departDelay="0.14" arrival="4639.00" arrivalLane="E5_0" arrivalPos="300.00" arrivalSpeed="13.45" duration="1296.00" routeLength="10003.87" waitingTime="476.00" waitingCount="1" stopTime="0.00" timeLoss="574.25" rerouteNo="0" devices="tripinfo_f_0.13" vType="car_0" speedFactor="1.06" vaporized=""/>
</tripinfos>
