<?xml version="1.0" encoding="UTF-8"?>

<!-- generated on 2025-01-09 13:59:08 by Eclipse SUMO sumo Version v1_20_0+0085-e155ab8699b
<configuration xmlns:xsi="http://www.w3.org/2001/XMLSchema-instance" xsi:noNamespaceSchemaLocation="http://sumo.dlr.de/xsd/sumoConfiguration.xsd">

    <input>
        <net-file value="/home/jian/sumo/project/rayRL/one_way_xml/one_way.net.xml"/>
        <route-files value="/home/jian/sumo/project/rayRL/one_way_xml/one_way.rou.xml"/>
    </input>

    <output>
        <output-prefix value="15-"/>
        <tripinfo-output value="/home/jian/sumo/project/rayRL/one_way_xml/data/default/tripinfo/tripinfo-output.xml"/>
    </output>

    <time>
        <step-length value="1.0"/>
    </time>

    <processing>
        <step-method.ballistic value="True"/>
    </processing>

    <report>
        <no-warnings value="True"/>
        <no-step-log value="True"/>
    </report>

    <traci_server>
        <remote-port value="59729"/>
    </traci_server>

    <gui_only>
        <quit-on-end value="True"/>
        <start value="True"/>
    </gui_only>

</configuration>
-->

<tripinfos xmlns:xsi="http://www.w3.org/2001/XMLSchema-instance" xsi:noNamespaceSchemaLocation="http://sumo.dlr.de/xsd/tripinfo_file.xsd">
    <tripinfo id="f_0.0" depart="0.00" departLane="E0_0" departPos="7.20" departSpeed="0.00" departDelay="0.00" arrival="1521.00" arrivalLane="E5_0" arrivalPos="300.00" arrivalSpeed="13.45" duration="1521.00" routeLength="10003.87" waitingTime="737.00" waitingCount="1" stopTime="0.00" timeLoss="798.71" rerouteNo="0" devices="tripinfo_f_0.0" vType="car_0" speedFactor="1.03" vaporized=""/>
    <tripinfo id="f_0.1" depart="240.00" departLane="E0_0" departPos="7.20" departSpeed="0.00" departDelay="0.00" arrival="2299.00" arrivalLane="E5_0" arrivalPos="300.00" arrivalSpeed="13.28" duration="2059.00" routeLength="10003.87" waitingTime="1238.00" waitingCount="3" stopTime="0.00" timeLoss="1314.25" rerouteNo="0" devices="tripinfo_f_0.1" vType="car_0" speedFactor="0.97" vaporized=""/>
    <tripinfo id="f_0.2" depart="480.00" departLane="E0_0" departPos="7.20" departSpeed="0.00" departDelay="0.00" arrival="2301.00" arrivalLane="E5_0" arrivalPos="300.00" arrivalSpeed="13.15" duration="1821.00" routeLength="10003.87" waitingTime="1003.00" waitingCount="2" stopTime="0.00" timeLoss="1099.12" rerouteNo="0" devices="tripinfo_f_0.2" vType="car_0" speedFactor="1.01" vaporized=""/>
    <tripinfo id="f_0.3" depart="720.00" departLane="E0_0" departPos="7.20" departSpeed="0.00" departDelay="0.00" arrival="2303.00" arrivalLane="E5_0" arrivalPos="300.00" arrivalSpeed="12.95" duration="1583.00" routeLength="10003.87" waitingTime="755.00" waitingCount="2" stopTime="0.00" timeLoss="860.68" rerouteNo="0" devices="tripinfo_f_0.3" vType="car_0" speedFactor="1.04" vaporized=""/>
    <tripinfo id="f_0.4" depart="960.00" departLane="E0_0" departPos="7.20" departSpeed="0.00" departDelay="0.00" arrival="2305.00" arrivalLane="E5_0" arrivalPos="300.00" arrivalSpeed="13.28" duration="1345.00" routeLength="10003.87" waitingTime="543.00" waitingCount="1" stopTime="0.00" timeLoss="622.61" rerouteNo="0" devices="tripinfo_f_0.4" vType="car_0" speedFactor="1.02" vaporized=""/>
    <tripinfo id="f_0.5" depart="1200.00" departLane="E0_0" departPos="7.20" departSpeed="0.00" departDelay="0.00" arrival="3094.00" arrivalLane="E5_0" arrivalPos="300.00" arrivalSpeed="12.38" duration="1894.00" routeLength="10003.87" waitingTime="1012.00" waitingCount="2" stopTime="0.00" timeLoss="1104.77" rerouteNo="0" devices="tripinfo_f_0.5" vType="car_0" speedFactor="0.92" vaporized=""/>
    <tripinfo id="f_0.6" depart="1440.00" departLane="E0_0" departPos="7.20" departSpeed="0.00" departDelay="0.00" arrival="3096.00" arrivalLane="E5_0" arrivalPos="300.00" arrivalSpeed="13.20" duration="1656.00" routeLength="10003.87" waitingTime="779.00" waitingCount="3" stopTime="0.00" timeLoss="933.92" rerouteNo="0" devices="tripinfo_f_0.6" vType="car_0" speedFactor="1.02" vaporized=""/>
    <tripinfo id="f_0.7" depart="1680.00" departLane="E0_0" departPos="7.20" departSpeed="0.00" departDelay="0.00" arrival="3850.00" arrivalLane="E5_0" arrivalPos="300.00" arrivalSpeed="12.65" duration="2170.00" routeLength="10003.87" waitingTime="1328.00" waitingCount="2" stopTime="0.00" timeLoss="1405.29" rerouteNo="0" devices="tripinfo_f_0.7" vType="car_0" speedFactor="0.94" vaporized=""/>
    <tripinfo id="f_0.8" depart="1920.00" departLane="E0_0" departPos="7.20" departSpeed="0.00" departDelay="0.00" arrival="3852.00" arrivalLane="E5_0" arrivalPos="300.00" arrivalSpeed="13.32" duration="1932.00" routeLength="10003.87" waitingTime="1087.00" waitingCount="2" stopTime="0.00" timeLoss="1187.13" rerouteNo="0" devices="tripinfo_f_0.8" vType="car_0" speedFactor="0.97" vaporized=""/>
    <tripinfo id="f_0.9" depart="2160.00" departLane="E0_0" departPos="7.20" departSpeed="0.00" departDelay="0.00" arrival="3862.00" arrivalLane="E5_0" arrivalPos="300.00" arrivalSpeed="11.77" duration="1702.00" routeLength="10003.87" waitingTime="845.00" waitingCount="2" stopTime="0.00" timeLoss="924.44" rerouteNo="0" devices="tripinfo_f_0.9" vType="car_0" speedFactor="0.93" vaporized=""/>
    <tripinfo id="f_0.10" depart="2400.00" departLane="E0_0" departPos="7.20" departSpeed="0.00" departDelay="0.00" arrival="3864.00" arrivalLane="E5_0" arrivalPos="300.00" arrivalSpeed="13.18" duration="1464.00" routeLength="10003.87" waitingTime="645.00" waitingCount="2" stopTime="0.00" timeLoss="742.02" rerouteNo="0" devices="tripinfo_f_0.10" vType="car_0" speedFactor="1.05" vaporized=""/>
    <tripinfo id="f_0.11" depart="2640.00" departLane="E0_0" departPos="7.20" departSpeed="0.00" departDelay="0.00" arrival="3866.00" arrivalLane="E5_0" arrivalPos="300.00" arrivalSpeed="13.03" duration="1226.00" routeLength="10003.87" waitingTime="406.00" waitingCount="1" stopTime="0.00" timeLoss="504.01" rerouteNo="0" devices="tripinfo_f_0.11" vType="car_0" speedFactor="1.01" vaporized=""/>
    <tripinfo id="f_0.12" depart="2880.00" departLane="E0_0" departPos="7.20" departSpeed="0.00" departDelay="0.00" arrival="4601.00" arrivalLane="E5_0" arrivalPos="300.00" arrivalSpeed="13.72" duration="1721.00" routeLength="10003.87" waitingTime="919.00" waitingCount="2" stopTime="0.00" timeLoss="998.43" rerouteNo="0" devices="tripinfo_f_0.12" vType="car_0" speedFactor="1.02" vaporized=""/>
    <tripinfo id="f_0.13" depart="3120.00" departLane="E0_0" departPos="7.20" departSpeed="0.00" departDelay="0.00" arrival="4603.00" arrivalLane="E5_0" arrivalPos="300.00" arrivalSpeed="12.78" duration="1483.00" routeLength="10003.87" waitingTime="694.00" waitingCount="1" stopTime="0.00" timeLoss="761.07" rerouteNo="0" devices="tripinfo_f_0.13" vType="car_0" speedFactor="1.06" vaporized=""/>
    <tripinfo id="f_0.14" depart="3360.00" departLane="E0_0" departPos="7.20" departSpeed="0.00" departDelay="0.00" arrival="4609.00" arrivalLane="E5_0" arrivalPos="300.00" arrivalSpeed="12.53" duration="1249.00" routeLength="10003.87" waitingTime="457.00" waitingCount="1" stopTime="0.00" timeLoss="524.59" rerouteNo="0" devices="tripinfo_f_0.14" vType="car_0" speedFactor="1.00" vaporized=""/>
</tripinfos>
