<?xml version="1.0" encoding="UTF-8"?>

<!-- generated on 2025-01-09 13:59:11 by Eclipse SUMO sumo Version v1_20_0+0085-e155ab8699b
<configuration xmlns:xsi="http://www.w3.org/2001/XMLSchema-instance" xsi:noNamespaceSchemaLocation="http://sumo.dlr.de/xsd/sumoConfiguration.xsd">

    <input>
        <net-file value="/home/jian/sumo/project/rayRL/one_way_xml/one_way.net.xml"/>
        <route-files value="/home/jian/sumo/project/rayRL/one_way_xml/one_way.rou.xml"/>
    </input>

    <output>
        <output-prefix value="16-"/>
        <tripinfo-output value="/home/jian/sumo/project/rayRL/one_way_xml/data/default/tripinfo/tripinfo-output.xml"/>
    </output>

    <time>
        <step-length value="1.0"/>
    </time>

    <processing>
        <step-method.ballistic value="True"/>
    </processing>

    <report>
        <no-warnings value="True"/>
        <no-step-log value="True"/>
    </report>

    <traci_server>
        <remote-port value="38621"/>
    </traci_server>

    <gui_only>
        <quit-on-end value="True"/>
        <start value="True"/>
    </gui_only>

</configuration>
-->

<tripinfos xmlns:xsi="http://www.w3.org/2001/XMLSchema-instance" xsi:noNamespaceSchemaLocation="http://sumo.dlr.de/xsd/tripinfo_file.xsd">
    <tripinfo id="f_0.0" depart="0.00" departLane="E0_0" departPos="7.20" departSpeed="0.00" departDelay="0.00" arrival="1518.00" arrivalLane="E5_0" arrivalPos="300.00" arrivalSpeed="13.45" duration="1518.00" routeLength="10003.87" waitingTime="736.00" waitingCount="1" stopTime="0.00" timeLoss="796.13" rerouteNo="0" devices="tripinfo_f_0.0" vType="car_0" speedFactor="1.03" vaporized=""/>
    <tripinfo id="f_0.1" depart="225.00" departLane="E0_0" departPos="7.20" departSpeed="0.00" departDelay="0.00" arrival="2299.00" arrivalLane="E5_0" arrivalPos="300.00" arrivalSpeed="13.46" duration="2074.00" routeLength="10003.87" waitingTime="1250.00" waitingCount="2" stopTime="0.00" timeLoss="1328.81" rerouteNo="0" devices="tripinfo_f_0.1" vType="car_0" speedFactor="0.97" vaporized=""/>
    <tripinfo id="f_0.2" depart="450.00" departLane="E0_0" departPos="7.20" departSpeed="0.00" departDelay="0.00" arrival="2301.00" arrivalLane="E5_0" arrivalPos="300.00" arrivalSpeed="13.04" duration="1851.00" routeLength="10003.87" waitingTime="1028.00" waitingCount="3" stopTime="0.00" timeLoss="1128.98" rerouteNo="0" devices="tripinfo_f_0.2" vType="car_0" speedFactor="1.01" vaporized=""/>
    <tripinfo id="f_0.3" depart="675.00" departLane="E0_0" departPos="7.20" departSpeed="0.00" departDelay="0.00" arrival="2303.00" arrivalLane="E5_0" arrivalPos="300.00" arrivalSpeed="13.66" duration="1628.00" routeLength="10003.87" waitingTime="804.00" waitingCount="2" stopTime="0.00" timeLoss="906.42" rerouteNo="0" devices="tripinfo_f_0.3" vType="car_0" speedFactor="1.04" vaporized=""/>
    <tripinfo id="f_0.4" depart="900.00" departLane="E0_0" departPos="7.20" departSpeed="0.00" departDelay="0.00" arrival="2305.00" arrivalLane="E5_0" arrivalPos="300.00" arrivalSpeed="13.39" duration="1405.00" routeLength="10003.87" waitingTime="608.00" waitingCount="1" stopTime="0.00" timeLoss="682.80" rerouteNo="0" devices="tripinfo_f_0.4" vType="car_0" speedFactor="1.02" vaporized=""/>
    <tripinfo id="f_0.5" depart="1125.00" departLane="E0_0" departPos="7.20" departSpeed="0.00" departDelay="0.00" arrival="3094.00" arrivalLane="E5_0" arrivalPos="300.00" arrivalSpeed="12.37" duration="1969.00" routeLength="10003.87" waitingTime="1095.00" waitingCount="3" stopTime="0.00" timeLoss="1180.39" rerouteNo="0" devices="tripinfo_f_0.5" vType="car_0" speedFactor="0.92" vaporized=""/>
    <tripinfo id="f_0.6" depart="1350.00" departLane="E0_0" departPos="7.20" departSpeed="0.00" departDelay="0.00" arrival="3096.00" arrivalLane="E5_0" arrivalPos="300.00" arrivalSpeed="13.55" duration="1746.00" routeLength="10003.87" waitingTime="868.00" waitingCount="2" stopTime="0.00" timeLoss="1024.02" rerouteNo="0" devices="tripinfo_f_0.6" vType="car_0" speedFactor="1.02" vaporized=""/>
    <tripinfo id="f_0.7" depart="1575.00" departLane="E0_0" departPos="7.20" departSpeed="0.00" departDelay="0.00" arrival="3854.00" arrivalLane="E5_0" arrivalPos="300.00" arrivalSpeed="12.98" duration="2279.00" routeLength="10003.87" waitingTime="1431.00" waitingCount="3" stopTime="0.00" timeLoss="1513.43" rerouteNo="0" devices="tripinfo_f_0.7" vType="car_0" speedFactor="0.94" vaporized=""/>
    <tripinfo id="f_0.8" depart="1800.00" departLane="E0_0" departPos="7.20" departSpeed="0.00" departDelay="0.00" arrival="3856.00" arrivalLane="E5_0" arrivalPos="300.00" arrivalSpeed="12.45" duration="2056.00" routeLength="10003.87" waitingTime="1205.00" waitingCount="2" stopTime="0.00" timeLoss="1310.43" rerouteNo="0" devices="tripinfo_f_0.8" vType="car_0" speedFactor="0.97" vaporized=""/>
    <tripinfo id="f_0.9" depart="2025.00" departLane="E0_0" departPos="7.20" departSpeed="0.00" departDelay="0.00" arrival="3865.00" arrivalLane="E5_0" arrivalPos="300.00" arrivalSpeed="12.16" duration="1840.00" routeLength="10003.87" waitingTime="980.00" waitingCount="3" stopTime="0.00" timeLoss="1062.31" rerouteNo="0" devices="tripinfo_f_0.9" vType="car_0" speedFactor="0.93" vaporized=""/>
    <tripinfo id="f_0.10" depart="2250.00" departLane="E0_0" departPos="7.20" departSpeed="0.00" departDelay="0.00" arrival="3867.00" arrivalLane="E5_0" arrivalPos="300.00" arrivalSpeed="12.38" duration="1617.00" routeLength="10003.87" waitingTime="759.00" waitingCount="3" stopTime="0.00" timeLoss="894.60" rerouteNo="0" devices="tripinfo_f_0.10" vType="car_0" speedFactor="1.05" vaporized=""/>
    <tripinfo id="f_0.11" depart="2475.00" departLane="E0_0" departPos="7.20" departSpeed="0.00" departDelay="0.00" arrival="3869.00" arrivalLane="E5_0" arrivalPos="300.00" arrivalSpeed="13.48" duration="1394.00" routeLength="10003.87" waitingTime="571.00" waitingCount="1" stopTime="0.00" timeLoss="672.27" rerouteNo="0" devices="tripinfo_f_0.11" vType="car_0" speedFactor="1.01" vaporized=""/>
    <tripinfo id="f_0.12" depart="2700.00" departLane="E0_0" departPos="7.20" departSpeed="0.00" departDelay="0.00" arrival="4601.00" arrivalLane="E5_0" arrivalPos="300.00" arrivalSpeed="13.37" duration="1901.00" routeLength="10003.87" waitingTime="1096.00" waitingCount="2" stopTime="0.00" timeLoss="1179.17" rerouteNo="0" devices="tripinfo_f_0.12" vType="car_0" speedFactor="1.02" vaporized=""/>
    <tripinfo id="f_0.13" depart="2925.00" departLane="E0_0" departPos="7.20" departSpeed="0.00" departDelay="0.00" arrival="4604.00" arrivalLane="E5_0" arrivalPos="300.00" arrivalSpeed="13.66" duration="1679.00" routeLength="10003.87" waitingTime="869.00" waitingCount="2" stopTime="0.00" timeLoss="956.07" rerouteNo="0" devices="tripinfo_f_0.13" vType="car_0" speedFactor="1.06" vaporized=""/>
    <tripinfo id="f_0.14" depart="3150.00" departLane="E0_0" departPos="7.20" departSpeed="0.00" departDelay="0.00" arrival="4608.00" arrivalLane="E5_0" arrivalPos="300.00" arrivalSpeed="12.61" duration="1458.00" routeLength="10003.87" waitingTime="667.00" waitingCount="2" stopTime="0.00" timeLoss="732.66" rerouteNo="0" devices="tripinfo_f_0.14" vType="car_0" speedFactor="1.00" vaporized=""/>
    <tripinfo id="f_0.15" depart="3375.00" departLane="E0_0" departPos="7.20" departSpeed="0.00" departDelay="0.00" arrival="5384.00" arrivalLane="E5_0" arrivalPos="300.00" arrivalSpeed="12.86" duration="2009.00" routeLength="10003.87" waitingTime="1180.00" waitingCount="2" stopTime="0.00" timeLoss="1259.33" rerouteNo="0" devices="tripinfo_f_0.15" vType="car_0" speedFactor="0.96" vaporized=""/>
</tripinfos>
