<?xml version="1.0" encoding="UTF-8"?>

<!-- generated on 2025-01-09 13:59:14 by Eclipse SUMO sumo Version v1_20_0+0085-e155ab8699b
<configuration xmlns:xsi="http://www.w3.org/2001/XMLSchema-instance" xsi:noNamespaceSchemaLocation="http://sumo.dlr.de/xsd/sumoConfiguration.xsd">

    <input>
        <net-file value="/home/jian/sumo/project/rayRL/one_way_xml/one_way.net.xml"/>
        <route-files value="/home/jian/sumo/project/rayRL/one_way_xml/one_way.rou.xml"/>
    </input>

    <output>
        <output-prefix value="17-"/>
        <tripinfo-output value="/home/jian/sumo/project/rayRL/one_way_xml/data/default/tripinfo/tripinfo-output.xml"/>
    </output>

    <time>
        <step-length value="1.0"/>
    </time>

    <processing>
        <step-method.ballistic value="True"/>
    </processing>

    <report>
        <no-warnings value="True"/>
        <no-step-log value="True"/>
    </report>

    <traci_server>
        <remote-port value="59153"/>
    </traci_server>

    <gui_only>
        <quit-on-end value="True"/>
        <start value="True"/>
    </gui_only>

</configuration>
-->

<tripinfos xmlns:xsi="http://www.w3.org/2001/XMLSchema-instance" xsi:noNamespaceSchemaLocation="http://sumo.dlr.de/xsd/tripinfo_file.xsd">
    <tripinfo id="f_0.0" depart="0.00" departLane="E0_0" departPos="7.20" departSpeed="0.00" departDelay="0.00" arrival="1519.00" arrivalLane="E5_0" arrivalPos="300.00" arrivalSpeed="13.45" duration="1519.00" routeLength="10003.87" waitingTime="736.00" waitingCount="1" stopTime="0.00" timeLoss="797.32" rerouteNo="0" devices="tripinfo_f_0.0" vType="car_0" speedFactor="1.03" vaporized=""/>
    <tripinfo id="f_0.1" depart="212.00" departLane="E0_0" departPos="7.20" departSpeed="0.00" departDelay="0.24" arrival="2302.00" arrivalLane="E5_0" arrivalPos="300.00" arrivalSpeed="13.37" duration="2090.00" routeLength="10003.87" waitingTime="1270.00" waitingCount="2" stopTime="0.00" timeLoss="1344.63" rerouteNo="0" devices="tripinfo_f_0.1" vType="car_0" speedFactor="0.97" vaporized=""/>
    <tripinfo id="f_0.2" depart="424.00" departLane="E0_0" departPos="7.20" departSpeed="0.00" departDelay="0.47" arrival="2304.00" arrivalLane="E5_0" arrivalPos="300.00" arrivalSpeed="12.89" duration="1880.00" routeLength="10003.87" waitingTime="1054.00" waitingCount="2" stopTime="0.00" timeLoss="1158.05" rerouteNo="0" devices="tripinfo_f_0.2" vType="car_0" speedFactor="1.01" vaporized=""/>
    <tripinfo id="f_0.3" depart="636.00" departLane="E0_0" departPos="7.20" departSpeed="0.00" departDelay="0.71" arrival="2306.00" arrivalLane="E5_0" arrivalPos="300.00" arrivalSpeed="13.39" duration="1670.00" routeLength="10003.87" waitingTime="843.00" waitingCount="3" stopTime="0.00" timeLoss="947.62" rerouteNo="0" devices="tripinfo_f_0.3" vType="car_0" speedFactor="1.04" vaporized=""/>
    <tripinfo id="f_0.4" depart="848.00" departLane="E0_0" departPos="7.20" departSpeed="0.00" departDelay="0.94" arrival="2308.00" arrivalLane="E5_0" arrivalPos="300.00" arrivalSpeed="12.73" duration="1460.00" routeLength="10003.87" waitingTime="657.00" waitingCount="1" stopTime="0.00" timeLoss="737.55" rerouteNo="0" devices="tripinfo_f_0.4" vType="car_0" speedFactor="1.02" vaporized=""/>
    <tripinfo id="f_0.5" depart="1059.00" departLane="E0_0" departPos="7.20" departSpeed="0.00" departDelay="0.18" arrival="3095.00" arrivalLane="E5_0" arrivalPos="300.00" arrivalSpeed="11.67" duration="2036.00" routeLength="10003.87" waitingTime="1165.00" waitingCount="3" stopTime="0.00" timeLoss="1247.54" rerouteNo="0" devices="tripinfo_f_0.5" vType="car_0" speedFactor="0.92" vaporized=""/>
    <tripinfo id="f_0.6" depart="1271.00" departLane="E0_0" departPos="7.20" departSpeed="0.00" departDelay="0.41" arrival="3097.00" arrivalLane="E5_0" arrivalPos="300.00" arrivalSpeed="13.26" duration="1826.00" routeLength="10003.87" waitingTime="955.00" waitingCount="2" stopTime="0.00" timeLoss="1104.06" rerouteNo="0" devices="tripinfo_f_0.6" vType="car_0" speedFactor="1.02" vaporized=""/>
    <tripinfo id="f_0.7" depart="1483.00" departLane="E0_0" departPos="7.20" departSpeed="0.00" departDelay="0.65" arrival="3099.00" arrivalLane="E5_0" arrivalPos="300.00" arrivalSpeed="12.57" duration="1616.00" routeLength="10003.87" waitingTime="741.00" waitingCount="3" stopTime="0.00" timeLoss="850.55" rerouteNo="0" devices="tripinfo_f_0.7" vType="car_0" speedFactor="0.94" vaporized=""/>
    <tripinfo id="f_0.8" depart="1695.00" departLane="E0_0" departPos="7.20" departSpeed="0.00" departDelay="0.88" arrival="3842.00" arrivalLane="E5_0" arrivalPos="300.00" arrivalSpeed="12.46" duration="2147.00" routeLength="10003.87" waitingTime="1322.00" waitingCount="2" stopTime="0.00" timeLoss="1401.98" rerouteNo="0" devices="tripinfo_f_0.8" vType="car_0" speedFactor="0.97" vaporized=""/>
    <tripinfo id="f_0.9" depart="1906.00" departLane="E0_0" departPos="7.20" departSpeed="0.00" departDelay="0.12" arrival="3864.00" arrivalLane="E5_0" arrivalPos="300.00" arrivalSpeed="12.16" duration="1958.00" routeLength="10003.87" waitingTime="1098.00" waitingCount="3" stopTime="0.00" timeLoss="1181.17" rerouteNo="0" devices="tripinfo_f_0.9" vType="car_0" speedFactor="0.93" vaporized=""/>
    <tripinfo id="f_0.10" depart="2118.00" departLane="E0_0" departPos="7.20" departSpeed="0.00" departDelay="0.35" arrival="3866.00" arrivalLane="E5_0" arrivalPos="300.00" arrivalSpeed="12.36" duration="1748.00" routeLength="10003.87" waitingTime="886.00" waitingCount="3" stopTime="0.00" timeLoss="1026.03" rerouteNo="0" devices="tripinfo_f_0.10" vType="car_0" speedFactor="1.05" vaporized=""/>
    <tripinfo id="f_0.11" depart="2330.00" departLane="E0_0" departPos="7.20" departSpeed="0.00" departDelay="0.59" arrival="3868.00" arrivalLane="E5_0" arrivalPos="300.00" arrivalSpeed="13.46" duration="1538.00" routeLength="10003.87" waitingTime="714.00" waitingCount="2" stopTime="0.00" timeLoss="816.04" rerouteNo="0" devices="tripinfo_f_0.11" vType="car_0" speedFactor="1.01" vaporized=""/>
    <tripinfo id="f_0.12" depart="2542.00" departLane="E0_0" departPos="7.20" departSpeed="0.00" departDelay="0.82" arrival="4602.00" arrivalLane="E5_0" arrivalPos="300.00" arrivalSpeed="13.65" duration="2060.00" routeLength="10003.87" waitingTime="1255.00" waitingCount="2" stopTime="0.00" timeLoss="1337.48" rerouteNo="0" devices="tripinfo_f_0.12" vType="car_0" speedFactor="1.02" vaporized=""/>
    <tripinfo id="f_0.13" depart="2753.00" departLane="E0_0" departPos="7.20" departSpeed="0.00" departDelay="0.06" arrival="4603.00" arrivalLane="E5_0" arrivalPos="300.00" arrivalSpeed="13.66" duration="1850.00" routeLength="10003.87" waitingTime="1042.00" waitingCount="2" stopTime="0.00" timeLoss="1128.78" rerouteNo="0" devices="tripinfo_f_0.13" vType="car_0" speedFactor="1.06" vaporized=""/>
    <tripinfo id="f_0.14" depart="2965.00" departLane="E0_0" departPos="7.20" departSpeed="0.00" departDelay="0.29" arrival="4606.00" arrivalLane="E5_0" arrivalPos="300.00" arrivalSpeed="13.39" duration="1641.00" routeLength="10003.87" waitingTime="832.00" waitingCount="3" stopTime="0.00" timeLoss="915.74" rerouteNo="0" devices="tripinfo_f_0.14" vType="car_0" speedFactor="1.00" vaporized=""/>
    <tripinfo id="f_0.15" depart="3177.00" departLane="E0_0" departPos="7.20" departSpeed="0.00" departDelay="0.53" arrival="5384.00" arrivalLane="E5_0" arrivalPos="300.00" arrivalSpeed="12.46" duration="2207.00" routeLength="10003.87" waitingTime="1374.00" waitingCount="3" stopTime="0.00" timeLoss="1456.99" rerouteNo="0" devices="tripinfo_f_0.15" vType="car_0" speedFactor="0.96" vaporized=""/>
    <tripinfo id="f_0.16" depart="3389.00" departLane="E0_0" departPos="7.20" departSpeed="0.00" departDelay="0.76" arrival="5399.00" arrivalLane="E5_0" arrivalPos="300.00" arrivalSpeed="12.48" duration="2010.00" routeLength="10003.87" waitingTime="1161.00" waitingCount="2" stopTime="0.00" timeLoss="1241.18" rerouteNo="0" devices="tripinfo_f_0.16" vType="car_0" speedFactor="0.94" vaporized=""/>
</tripinfos>
