<?xml version="1.0" encoding="UTF-8"?>

<!-- generated on 2025-01-09 13:59:41 by Eclipse SUMO sumo Version v1_20_0+0085-e155ab8699b
<configuration xmlns:xsi="http://www.w3.org/2001/XMLSchema-instance" xsi:noNamespaceSchemaLocation="http://sumo.dlr.de/xsd/sumoConfiguration.xsd">

    <input>
        <net-file value="/home/jian/sumo/project/rayRL/one_way_xml/one_way.net.xml"/>
        <route-files value="/home/jian/sumo/project/rayRL/one_way_xml/one_way.rou.xml"/>
    </input>

    <output>
        <output-prefix value="25-"/>
        <tripinfo-output value="/home/jian/sumo/project/rayRL/one_way_xml/data/default/tripinfo/tripinfo-output.xml"/>
    </output>

    <time>
        <step-length value="1.0"/>
    </time>

    <processing>
        <step-method.ballistic value="True"/>
    </processing>

    <report>
        <no-warnings value="True"/>
        <no-step-log value="True"/>
    </report>

    <traci_server>
        <remote-port value="38439"/>
    </traci_server>

    <gui_only>
        <quit-on-end value="True"/>
        <start value="True"/>
    </gui_only>

</configuration>
-->

<tripinfos xmlns:xsi="http://www.w3.org/2001/XMLSchema-instance" xsi:noNamespaceSchemaLocation="http://sumo.dlr.de/xsd/tripinfo_file.xsd">
    <tripinfo id="f_0.0" depart="0.00" departLane="E0_0" departPos="7.20" departSpeed="0.00" departDelay="0.00" arrival="1519.00" arrivalLane="E5_0" arrivalPos="300.00" arrivalSpeed="13.45" duration="1519.00" routeLength="10003.87" waitingTime="736.00" waitingCount="1" stopTime="0.00" timeLoss="797.10" rerouteNo="0" devices="tripinfo_f_0.0" vType="car_0" speedFactor="1.03" vaporized=""/>
    <tripinfo id="f_0.1" depart="144.00" departLane="E0_0" departPos="7.20" departSpeed="0.00" departDelay="0.00" arrival="2300.00" arrivalLane="E5_0" arrivalPos="300.00" arrivalSpeed="13.46" duration="2156.00" routeLength="10003.87" waitingTime="1330.00" waitingCount="3" stopTime="0.00" timeLoss="1411.63" rerouteNo="0" devices="tripinfo_f_0.1" vType="car_0" speedFactor="0.97" vaporized=""/>
    <tripinfo id="f_0.2" depart="288.00" departLane="E0_0" departPos="7.20" departSpeed="0.00" departDelay="0.00" arrival="2302.00" arrivalLane="E5_0" arrivalPos="300.00" arrivalSpeed="13.04" duration="2014.00" routeLength="10003.87" waitingTime="1183.00" waitingCount="2" stopTime="0.00" timeLoss="1291.85" rerouteNo="0" devices="tripinfo_f_0.2" vType="car_0" speedFactor="1.01" vaporized=""/>
    <tripinfo id="f_0.3" depart="432.00" departLane="E0_0" departPos="7.20" departSpeed="0.00" departDelay="0.00" arrival="2304.00" arrivalLane="E5_0" arrivalPos="300.00" arrivalSpeed="13.66" duration="1872.00" routeLength="10003.87" waitingTime="1042.00" waitingCount="3" stopTime="0.00" timeLoss="1150.62" rerouteNo="0" devices="tripinfo_f_0.3" vType="car_0" speedFactor="1.04" vaporized=""/>
    <tripinfo id="f_0.4" depart="576.00" departLane="E0_0" departPos="7.20" departSpeed="0.00" departDelay="0.00" arrival="2306.00" arrivalLane="E5_0" arrivalPos="300.00" arrivalSpeed="13.39" duration="1730.00" routeLength="10003.87" waitingTime="899.00" waitingCount="2" stopTime="0.00" timeLoss="1007.99" rerouteNo="0" devices="tripinfo_f_0.4" vType="car_0" speedFactor="1.02" vaporized=""/>
    <tripinfo id="f_0.5" depart="720.00" departLane="E0_0" departPos="7.20" departSpeed="0.00" departDelay="0.00" arrival="3090.00" arrivalLane="E5_0" arrivalPos="300.00" arrivalSpeed="11.83" duration="2370.00" routeLength="10003.87" waitingTime="1493.00" waitingCount="3" stopTime="0.00" timeLoss="1582.33" rerouteNo="0" devices="tripinfo_f_0.5" vType="car_0" speedFactor="0.92" vaporized=""/>
    <tripinfo id="f_0.6" depart="864.00" departLane="E0_0" departPos="7.20" departSpeed="0.00" departDelay="0.00" arrival="3092.00" arrivalLane="E5_0" arrivalPos="300.00" arrivalSpeed="13.41" duration="2228.00" routeLength="10003.87" waitingTime="1364.00" waitingCount="2" stopTime="0.00" timeLoss="1506.52" rerouteNo="0" devices="tripinfo_f_0.6" vType="car_0" speedFactor="1.02" vaporized=""/>
    <tripinfo id="f_0.7" depart="1008.00" departLane="E0_0" departPos="7.20" departSpeed="0.00" departDelay="0.00" arrival="3094.00" arrivalLane="E5_0" arrivalPos="300.00" arrivalSpeed="12.98" duration="2086.00" routeLength="10003.87" waitingTime="1219.00" waitingCount="2" stopTime="0.00" timeLoss="1320.28" rerouteNo="0" devices="tripinfo_f_0.7" vType="car_0" speedFactor="0.94" vaporized=""/>
    <tripinfo id="f_0.8" depart="1152.00" departLane="E0_0" departPos="7.20" departSpeed="0.00" departDelay="0.00" arrival="3096.00" arrivalLane="E5_0" arrivalPos="300.00" arrivalSpeed="12.84" duration="1944.00" routeLength="10003.87" waitingTime="1077.00" waitingCount="4" stopTime="0.00" timeLoss="1198.69" rerouteNo="0" devices="tripinfo_f_0.8" vType="car_0" speedFactor="0.97" vaporized=""/>
    <tripinfo id="f_0.9" depart="1296.00" departLane="E0_0" departPos="7.20" departSpeed="0.00" departDelay="0.00" arrival="3860.00" arrivalLane="E5_0" arrivalPos="300.00" arrivalSpeed="12.16" duration="2564.00" routeLength="10003.87" waitingTime="1667.00" waitingCount="4" stopTime="0.00" timeLoss="1786.21" rerouteNo="0" devices="tripinfo_f_0.9" vType="car_0" speedFactor="0.93" vaporized=""/>
    <tripinfo id="f_0.10" depart="1440.00" departLane="E0_0" departPos="7.20" departSpeed="0.00" departDelay="0.00" arrival="3862.00" arrivalLane="E5_0" arrivalPos="300.00" arrivalSpeed="13.19" duration="2422.00" routeLength="10003.87" waitingTime="1567.00" waitingCount="4" stopTime="0.00" timeLoss="1699.96" rerouteNo="0" devices="tripinfo_f_0.10" vType="car_0" speedFactor="1.05" vaporized=""/>
    <tripinfo id="f_0.11" depart="1584.00" departLane="E0_0" departPos="7.20" departSpeed="0.00" departDelay="0.00" arrival="3863.00" arrivalLane="E5_0" arrivalPos="300.00" arrivalSpeed="13.34" duration="2279.00" routeLength="10003.87" waitingTime="1433.00" waitingCount="4" stopTime="0.00" timeLoss="1557.21" rerouteNo="0" devices="tripinfo_f_0.11" vType="car_0" speedFactor="1.01" vaporized=""/>
    <tripinfo id="f_0.12" depart="1728.00" departLane="E0_0" departPos="7.20" departSpeed="0.00" departDelay="0.00" arrival="3865.00" arrivalLane="E5_0" arrivalPos="300.00" arrivalSpeed="13.62" duration="2137.00" routeLength="10003.87" waitingTime="1295.00" waitingCount="2" stopTime="0.00" timeLoss="1415.05" rerouteNo="0" devices="tripinfo_f_0.12" vType="car_0" speedFactor="1.02" vaporized=""/>
    <tripinfo id="f_0.13" depart="1872.00" departLane="E0_0" departPos="7.20" departSpeed="0.00" departDelay="0.00" arrival="3867.00" arrivalLane="E5_0" arrivalPos="300.00" arrivalSpeed="12.86" duration="1995.00" routeLength="10003.87" waitingTime="1157.00" waitingCount="3" stopTime="0.00" timeLoss="1273.82" rerouteNo="0" devices="tripinfo_f_0.13" vType="car_0" speedFactor="1.06" vaporized=""/>
    <tripinfo id="f_0.14" depart="2016.00" departLane="E0_0" departPos="7.20" departSpeed="0.00" departDelay="0.00" arrival="4604.00" arrivalLane="E5_0" arrivalPos="300.00" arrivalSpeed="12.98" duration="2588.00" routeLength="10003.87" waitingTime="1765.00" waitingCount="4" stopTime="0.00" timeLoss="1862.84" rerouteNo="0" devices="tripinfo_f_0.14" vType="car_0" speedFactor="1.00" vaporized=""/>
    <tripinfo id="f_0.15" depart="2160.00" departLane="E0_0" departPos="7.20" departSpeed="0.00" departDelay="0.00" arrival="4617.00" arrivalLane="E5_0" arrivalPos="300.00" arrivalSpeed="12.25" duration="2457.00" routeLength="10003.87" waitingTime="1617.00" waitingCount="5" stopTime="0.00" timeLoss="1708.05" rerouteNo="0" devices="tripinfo_f_0.15" vType="car_0" speedFactor="0.96" vaporized=""/>
    <tripinfo id="f_0.16" depart="2304.00" departLane="E0_0" departPos="7.20" departSpeed="0.00" departDelay="0.00" arrival="4633.00" arrivalLane="E5_0" arrivalPos="300.00" arrivalSpeed="12.01" duration="2329.00" routeLength="10003.87" waitingTime="1475.00" waitingCount="2" stopTime="0.00" timeLoss="1560.95" rerouteNo="0" devices="tripinfo_f_0.16" vType="car_0" speedFactor="0.94" vaporized=""/>
    <tripinfo id="f_0.17" depart="2448.00" departLane="E0_0" departPos="7.20" departSpeed="0.00" departDelay="0.00" arrival="4635.00" arrivalLane="E5_0" arrivalPos="300.00" arrivalSpeed="13.38" duration="2187.00" routeLength="10003.87" waitingTime="1329.00" waitingCount="3" stopTime="0.00" timeLoss="1443.12" rerouteNo="0" devices="tripinfo_f_0.17" vType="car_0" speedFactor="0.97" vaporized=""/>
    <tripinfo id="f_0.18" depart="2592.00" departLane="E0_0" departPos="7.20" departSpeed="0.00" departDelay="0.00" arrival="4637.00" arrivalLane="E5_0" arrivalPos="300.00" arrivalSpeed="12.34" duration="2045.00" routeLength="10003.87" waitingTime="1185.00" waitingCount="2" stopTime="0.00" timeLoss="1299.82" rerouteNo="0" devices="tripinfo_f_0.18" vType="car_0" speedFactor="0.97" vaporized=""/>
    <tripinfo id="f_0.19" depart="2736.00" departLane="E0_0" departPos="7.20" departSpeed="0.00" departDelay="0.00" arrival="5370.00" arrivalLane="E5_0" arrivalPos="300.00" arrivalSpeed="13.87" duration="2634.00" routeLength="10003.87" waitingTime="1814.00" waitingCount="3" stopTime="0.00" timeLoss="1911.35" rerouteNo="0" devices="tripinfo_f_0.19" vType="car_0" speedFactor="1.08" vaporized=""/>
    <tripinfo id="f_0.20" depart="2880.00" departLane="E0_0" departPos="7.20" departSpeed="0.00" departDelay="0.00" arrival="5375.00" arrivalLane="E5_0" arrivalPos="300.00" arrivalSpeed="12.85" duration="2495.00" routeLength="10003.87" waitingTime="1676.00" waitingCount="3" stopTime="0.00" timeLoss="1773.21" rerouteNo="0" devices="tripinfo_f_0.20" vType="car_0" speedFactor="1.01" vaporized=""/>
    <tripinfo id="f_0.21" depart="3024.00" departLane="E0_0" departPos="7.20" departSpeed="0.00" departDelay="0.00" arrival="5377.00" arrivalLane="E5_0" arrivalPos="300.00" arrivalSpeed="13.83" duration="2353.00" routeLength="10003.87" waitingTime="1530.00" waitingCount="5" stopTime="0.00" timeLoss="1631.18" rerouteNo="0" devices="tripinfo_f_0.21" vType="car_0" speedFactor="1.01" vaporized=""/>
    <tripinfo id="f_0.22" depart="3168.00" departLane="E0_0" departPos="7.20" departSpeed="0.00" departDelay="0.00" arrival="5385.00" arrivalLane="E5_0" arrivalPos="300.00" arrivalSpeed="13.68" duration="2217.00" routeLength="10003.87" waitingTime="1401.00" waitingCount="2" stopTime="0.00" timeLoss="1486.32" rerouteNo="0" devices="tripinfo_f_0.22" vType="car_0" speedFactor="0.99" vaporized=""/>
    <tripinfo id="f_0.23" depart="3312.00" departLane="E0_0" departPos="7.20" departSpeed="0.00" departDelay="0.00" arrival="6163.00" arrivalLane="E5_0" arrivalPos="300.00" arrivalSpeed="12.40" duration="2851.00" routeLength="10003.87" waitingTime="1990.00" waitingCount="4" stopTime="0.00" timeLoss="2086.71" rerouteNo="0" devices="tripinfo_f_0.23" vType="car_0" speedFactor="0.94" vaporized=""/>
    <tripinfo id="f_0.24" depart="3456.00" departLane="E0_0" departPos="7.20" departSpeed="0.00" departDelay="0.00" arrival="6179.00" arrivalLane="E5_0" arrivalPos="300.00" arrivalSpeed="11.63" duration="2723.00" routeLength="10003.87" waitingTime="1833.00" waitingCount="3" stopTime="0.00" timeLoss="1932.03" rerouteNo="0" devices="tripinfo_f_0.24" vType="car_0" speedFactor="0.91" vaporized=""/>
</tripinfos>
