<?xml version="1.0" encoding="UTF-8"?>

<!-- generated on 2025-01-09 13:59:45 by Eclipse SUMO sumo Version v1_20_0+0085-e155ab8699b
<configuration xmlns:xsi="http://www.w3.org/2001/XMLSchema-instance" xsi:noNamespaceSchemaLocation="http://sumo.dlr.de/xsd/sumoConfiguration.xsd">

    <input>
        <net-file value="/home/jian/sumo/project/rayRL/one_way_xml/one_way.net.xml"/>
        <route-files value="/home/jian/sumo/project/rayRL/one_way_xml/one_way.rou.xml"/>
    </input>

    <output>
        <output-prefix value="26-"/>
        <tripinfo-output value="/home/jian/sumo/project/rayRL/one_way_xml/data/default/tripinfo/tripinfo-output.xml"/>
    </output>

    <time>
        <step-length value="1.0"/>
    </time>

    <processing>
        <step-method.ballistic value="True"/>
    </processing>

    <report>
        <no-warnings value="True"/>
        <no-step-log value="True"/>
    </report>

    <traci_server>
        <remote-port value="36225"/>
    </traci_server>

    <gui_only>
        <quit-on-end value="True"/>
        <start value="True"/>
    </gui_only>

</configuration>
-->

<tripinfos xmlns:xsi="http://www.w3.org/2001/XMLSchema-instance" xsi:noNamespaceSchemaLocation="http://sumo.dlr.de/xsd/tripinfo_file.xsd">
    <tripinfo id="f_0.0" depart="0.00" departLane="E0_0" departPos="7.20" departSpeed="0.00" departDelay="0.00" arrival="1518.00" arrivalLane="E5_0" arrivalPos="300.00" arrivalSpeed="13.45" duration="1518.00" routeLength="10003.87" waitingTime="736.00" waitingCount="1" stopTime="0.00" timeLoss="796.40" rerouteNo="0" devices="tripinfo_f_0.0" vType="car_0" speedFactor="1.03" vaporized=""/>
    <tripinfo id="f_0.1" depart="139.00" departLane="E0_0" departPos="7.20" departSpeed="0.00" departDelay="0.54" arrival="2300.00" arrivalLane="E5_0" arrivalPos="300.00" arrivalSpeed="12.88" duration="2161.00" routeLength="10003.87" waitingTime="1341.00" waitingCount="2" stopTime="0.00" timeLoss="1415.54" rerouteNo="0" devices="tripinfo_f_0.1" vType="car_0" speedFactor="0.97" vaporized=""/>
    <tripinfo id="f_0.2" depart="277.00" departLane="E0_0" departPos="7.20" departSpeed="0.00" departDelay="0.08" arrival="2302.00" arrivalLane="E5_0" arrivalPos="300.00" arrivalSpeed="12.92" duration="2025.00" routeLength="10003.87" waitingTime="1201.00" waitingCount="3" stopTime="0.00" timeLoss="1302.51" rerouteNo="0" devices="tripinfo_f_0.2" vType="car_0" speedFactor="1.01" vaporized=""/>
    <tripinfo id="f_0.3" depart="416.00" departLane="E0_0" departPos="7.20" departSpeed="0.00" departDelay="0.61" arrival="2304.00" arrivalLane="E5_0" arrivalPos="300.00" arrivalSpeed="13.22" duration="1888.00" routeLength="10003.87" waitingTime="1061.00" waitingCount="2" stopTime="0.00" timeLoss="1165.52" rerouteNo="0" devices="tripinfo_f_0.3" vType="car_0" speedFactor="1.04" vaporized=""/>
    <tripinfo id="f_0.4" depart="554.00" departLane="E0_0" departPos="7.20" departSpeed="0.00" departDelay="0.15" arrival="2306.00" arrivalLane="E5_0" arrivalPos="300.00" arrivalSpeed="13.66" duration="1752.00" routeLength="10003.87" waitingTime="922.00" waitingCount="2" stopTime="0.00" timeLoss="1029.38" rerouteNo="0" devices="tripinfo_f_0.4" vType="car_0" speedFactor="1.02" vaporized=""/>
    <tripinfo id="f_0.5" depart="693.00" departLane="E0_0" departPos="7.20" departSpeed="0.00" departDelay="0.69" arrival="3095.00" arrivalLane="E5_0" arrivalPos="300.00" arrivalSpeed="11.57" duration="2402.00" routeLength="10003.87" waitingTime="1522.00" waitingCount="3" stopTime="0.00" timeLoss="1613.29" rerouteNo="0" devices="tripinfo_f_0.5" vType="car_0" speedFactor="0.92" vaporized=""/>
    <tripinfo id="f_0.6" depart="831.00" departLane="E0_0" departPos="7.20" departSpeed="0.00" departDelay="0.23" arrival="3097.00" arrivalLane="E5_0" arrivalPos="300.00" arrivalSpeed="12.91" duration="2266.00" routeLength="10003.87" waitingTime="1394.00" waitingCount="2" stopTime="0.00" timeLoss="1543.60" rerouteNo="0" devices="tripinfo_f_0.6" vType="car_0" speedFactor="1.02" vaporized=""/>
    <tripinfo id="f_0.7" depart="970.00" departLane="E0_0" departPos="7.20" departSpeed="0.00" departDelay="0.77" arrival="3099.00" arrivalLane="E5_0" arrivalPos="300.00" arrivalSpeed="12.10" duration="2129.00" routeLength="10003.87" waitingTime="1251.00" waitingCount="2" stopTime="0.00" timeLoss="1363.36" rerouteNo="0" devices="tripinfo_f_0.7" vType="car_0" speedFactor="0.94" vaporized=""/>
    <tripinfo id="f_0.8" depart="1108.00" departLane="E0_0" departPos="7.20" departSpeed="0.00" departDelay="0.30" arrival="3101.00" arrivalLane="E5_0" arrivalPos="300.00" arrivalSpeed="12.40" duration="1993.00" routeLength="10003.87" waitingTime="1115.00" waitingCount="3" stopTime="0.00" timeLoss="1247.25" rerouteNo="0" devices="tripinfo_f_0.8" vType="car_0" speedFactor="0.97" vaporized=""/>
    <tripinfo id="f_0.9" depart="1247.00" departLane="E0_0" departPos="7.20" departSpeed="0.00" departDelay="0.84" arrival="3859.00" arrivalLane="E5_0" arrivalPos="300.00" arrivalSpeed="11.94" duration="2612.00" routeLength="10003.87" waitingTime="1724.00" waitingCount="3" stopTime="0.00" timeLoss="1834.85" rerouteNo="0" devices="tripinfo_f_0.9" vType="car_0" speedFactor="0.93" vaporized=""/>
    <tripinfo id="f_0.10" depart="1385.00" departLane="E0_0" departPos="7.20" departSpeed="0.00" departDelay="0.38" arrival="3861.00" arrivalLane="E5_0" arrivalPos="300.00" arrivalSpeed="13.72" duration="2476.00" routeLength="10003.87" waitingTime="1625.00" waitingCount="4" stopTime="0.00" timeLoss="1754.48" rerouteNo="0" devices="tripinfo_f_0.10" vType="car_0" speedFactor="1.05" vaporized=""/>
    <tripinfo id="f_0.11" depart="1524.00" departLane="E0_0" departPos="7.20" departSpeed="0.00" departDelay="0.92" arrival="3863.00" arrivalLane="E5_0" arrivalPos="300.00" arrivalSpeed="12.88" duration="2339.00" routeLength="10003.87" waitingTime="1494.00" waitingCount="2" stopTime="0.00" timeLoss="1617.46" rerouteNo="0" devices="tripinfo_f_0.11" vType="car_0" speedFactor="1.01" vaporized=""/>
    <tripinfo id="f_0.12" depart="1662.00" departLane="E0_0" departPos="7.20" departSpeed="0.00" departDelay="0.46" arrival="3865.00" arrivalLane="E5_0" arrivalPos="300.00" arrivalSpeed="13.45" duration="2203.00" routeLength="10003.87" waitingTime="1364.00" waitingCount="3" stopTime="0.00" timeLoss="1481.21" rerouteNo="0" devices="tripinfo_f_0.12" vType="car_0" speedFactor="1.02" vaporized=""/>
    <tripinfo id="f_0.13" depart="1801.00" departLane="E0_0" departPos="7.20" departSpeed="0.00" departDelay="0.99" arrival="3867.00" arrivalLane="E5_0" arrivalPos="300.00" arrivalSpeed="13.66" duration="2066.00" routeLength="10003.87" waitingTime="1228.00" waitingCount="3" stopTime="0.00" timeLoss="1343.52" rerouteNo="0" devices="tripinfo_f_0.13" vType="car_0" speedFactor="1.06" vaporized=""/>
    <tripinfo id="f_0.14" depart="1939.00" departLane="E0_0" departPos="7.20" departSpeed="0.00" departDelay="0.53" arrival="4605.00" arrivalLane="E5_0" arrivalPos="300.00" arrivalSpeed="13.82" duration="2666.00" routeLength="10003.87" waitingTime="1840.00" waitingCount="4" stopTime="0.00" timeLoss="1940.77" rerouteNo="0" devices="tripinfo_f_0.14" vType="car_0" speedFactor="1.00" vaporized=""/>
    <tripinfo id="f_0.15" depart="2077.00" departLane="E0_0" departPos="7.20" departSpeed="0.00" departDelay="0.07" arrival="4620.00" arrivalLane="E5_0" arrivalPos="300.00" arrivalSpeed="12.72" duration="2543.00" routeLength="10003.87" waitingTime="1696.00" waitingCount="4" stopTime="0.00" timeLoss="1793.72" rerouteNo="0" devices="tripinfo_f_0.15" vType="car_0" speedFactor="0.96" vaporized=""/>
    <tripinfo id="f_0.16" depart="2216.00" departLane="E0_0" departPos="7.20" departSpeed="0.00" departDelay="0.61" arrival="4632.00" arrivalLane="E5_0" arrivalPos="300.00" arrivalSpeed="12.72" duration="2416.00" routeLength="10003.87" waitingTime="1553.00" waitingCount="4" stopTime="0.00" timeLoss="1647.44" rerouteNo="0" devices="tripinfo_f_0.16" vType="car_0" speedFactor="0.94" vaporized=""/>
    <tripinfo id="f_0.17" depart="2354.00" departLane="E0_0" departPos="7.20" departSpeed="0.00" departDelay="0.15" arrival="4634.00" arrivalLane="E5_0" arrivalPos="300.00" arrivalSpeed="12.74" duration="2280.00" routeLength="10003.87" waitingTime="1423.00" waitingCount="3" stopTime="0.00" timeLoss="1535.97" rerouteNo="0" devices="tripinfo_f_0.17" vType="car_0" speedFactor="0.97" vaporized=""/>
    <tripinfo id="f_0.18" depart="2493.00" departLane="E0_0" departPos="7.20" departSpeed="0.00" departDelay="0.68" arrival="5386.00" arrivalLane="E5_0" arrivalPos="300.00" arrivalSpeed="12.84" duration="2893.00" routeLength="10003.87" waitingTime="2049.00" waitingCount="4" stopTime="0.00" timeLoss="2147.02" rerouteNo="0" devices="tripinfo_f_0.18" vType="car_0" speedFactor="0.97" vaporized=""/>
    <tripinfo id="f_0.19" depart="2631.00" departLane="E0_0" departPos="7.20" departSpeed="0.00" departDelay="0.22" arrival="5388.00" arrivalLane="E5_0" arrivalPos="300.00" arrivalSpeed="12.76" duration="2757.00" routeLength="10003.87" waitingTime="1915.00" waitingCount="4" stopTime="0.00" timeLoss="2035.11" rerouteNo="0" devices="tripinfo_f_0.19" vType="car_0" speedFactor="1.08" vaporized=""/>
    <tripinfo id="f_0.20" depart="2770.00" departLane="E0_0" departPos="7.20" departSpeed="0.00" departDelay="0.76" arrival="5390.00" arrivalLane="E5_0" arrivalPos="300.00" arrivalSpeed="13.01" duration="2620.00" routeLength="10003.87" waitingTime="1773.00" waitingCount="4" stopTime="0.00" timeLoss="1897.58" rerouteNo="0" devices="tripinfo_f_0.20" vType="car_0" speedFactor="1.01" vaporized=""/>
    <tripinfo id="f_0.21" depart="2908.00" departLane="E0_0" departPos="7.20" departSpeed="0.00" departDelay="0.30" arrival="6141.00" arrivalLane="E5_0" arrivalPos="300.00" arrivalSpeed="13.04" duration="3233.00" routeLength="10003.87" waitingTime="2387.00" waitingCount="5" stopTime="0.00" timeLoss="2511.34" rerouteNo="0" devices="tripinfo_f_0.21" vType="car_0" speedFactor="1.01" vaporized=""/>
    <tripinfo id="f_0.22" depart="3047.00" departLane="E0_0" departPos="7.20" departSpeed="0.00" departDelay="0.84" arrival="6149.00" arrivalLane="E5_0" arrivalPos="300.00" arrivalSpeed="12.91" duration="3102.00" routeLength="10003.87" waitingTime="2256.00" waitingCount="5" stopTime="0.00" timeLoss="2370.89" rerouteNo="0" devices="tripinfo_f_0.22" vType="car_0" speedFactor="0.99" vaporized=""/>
    <tripinfo id="f_0.23" depart="3185.00" departLane="E0_0" departPos="7.20" departSpeed="0.00" departDelay="0.37" arrival="6168.00" arrivalLane="E5_0" arrivalPos="300.00" arrivalSpeed="12.57" duration="2983.00" routeLength="10003.87" waitingTime="2118.00" waitingCount="3" stopTime="0.00" timeLoss="2219.41" rerouteNo="0" devices="tripinfo_f_0.23" vType="car_0" speedFactor="0.94" vaporized=""/>
    <tripinfo id="f_0.24" depart="3324.00" departLane="E0_0" departPos="7.20" departSpeed="0.00" departDelay="0.91" arrival="6186.00" arrivalLane="E5_0" arrivalPos="300.00" arrivalSpeed="11.83" duration="2862.00" routeLength="10003.87" waitingTime="1963.00" waitingCount="3" stopTime="0.00" timeLoss="2070.93" rerouteNo="0" devices="tripinfo_f_0.24" vType="car_0" speedFactor="0.91" vaporized=""/>
    <tripinfo id="f_0.25" depart="3462.00" departLane="E0_0" departPos="7.20" departSpeed="0.00" departDelay="0.45" arrival="6188.00" arrivalLane="E5_0" arrivalPos="300.00" arrivalSpeed="12.58" duration="2726.00" routeLength="10003.87" waitingTime="1826.00" waitingCount="4" stopTime="0.00" timeLoss="1954.64" rerouteNo="0" devices="tripinfo_f_0.25" vType="car_0" speedFactor="0.94" vaporized=""/>
</tripinfos>
