<?xml version="1.0" encoding="UTF-8"?>

<!-- generated on 2025-01-09 13:59:53 by Eclipse SUMO sumo Version v1_20_0+0085-e155ab8699b
<configuration xmlns:xsi="http://www.w3.org/2001/XMLSchema-instance" xsi:noNamespaceSchemaLocation="http://sumo.dlr.de/xsd/sumoConfiguration.xsd">

    <input>
        <net-file value="/home/jian/sumo/project/rayRL/one_way_xml/one_way.net.xml"/>
        <route-files value="/home/jian/sumo/project/rayRL/one_way_xml/one_way.rou.xml"/>
    </input>

    <output>
        <output-prefix value="28-"/>
        <tripinfo-output value="/home/jian/sumo/project/rayRL/one_way_xml/data/default/tripinfo/tripinfo-output.xml"/>
    </output>

    <time>
        <step-length value="1.0"/>
    </time>

    <processing>
        <step-method.ballistic value="True"/>
    </processing>

    <report>
        <no-warnings value="True"/>
        <no-step-log value="True"/>
    </report>

    <traci_server>
        <remote-port value="45641"/>
    </traci_server>

    <gui_only>
        <quit-on-end value="True"/>
        <start value="True"/>
    </gui_only>

</configuration>
-->

<tripinfos xmlns:xsi="http://www.w3.org/2001/XMLSchema-instance" xsi:noNamespaceSchemaLocation="http://sumo.dlr.de/xsd/tripinfo_file.xsd">
    <tripinfo id="f_0.0" depart="0.00" departLane="E0_0" departPos="7.20" departSpeed="0.00" departDelay="0.00" arrival="1517.00" arrivalLane="E5_0" arrivalPos="300.00" arrivalSpeed="13.45" duration="1517.00" routeLength="10003.87" waitingTime="736.00" waitingCount="1" stopTime="0.00" timeLoss="795.05" rerouteNo="0" devices="tripinfo_f_0.0" vType="car_0" speedFactor="1.03" vaporized=""/>
    <tripinfo id="f_0.1" depart="129.00" departLane="E0_0" departPos="7.20" departSpeed="0.00" departDelay="0.43" arrival="2301.00" arrivalLane="E5_0" arrivalPos="300.00" arrivalSpeed="13.46" duration="2172.00" routeLength="10003.87" waitingTime="1347.00" waitingCount="2" stopTime="0.00" timeLoss="1427.14" rerouteNo="0" devices="tripinfo_f_0.1" vType="car_0" speedFactor="0.97" vaporized=""/>
    <tripinfo id="f_0.2" depart="258.00" departLane="E0_0" departPos="7.20" departSpeed="0.00" departDelay="0.86" arrival="2303.00" arrivalLane="E5_0" arrivalPos="300.00" arrivalSpeed="13.04" duration="2045.00" routeLength="10003.87" waitingTime="1215.00" waitingCount="2" stopTime="0.00" timeLoss="1323.18" rerouteNo="0" devices="tripinfo_f_0.2" vType="car_0" speedFactor="1.01" vaporized=""/>
    <tripinfo id="f_0.3" depart="386.00" departLane="E0_0" departPos="7.20" departSpeed="0.00" departDelay="0.29" arrival="2305.00" arrivalLane="E5_0" arrivalPos="300.00" arrivalSpeed="13.66" duration="1919.00" routeLength="10003.87" waitingTime="1089.00" waitingCount="2" stopTime="0.00" timeLoss="1196.81" rerouteNo="0" devices="tripinfo_f_0.3" vType="car_0" speedFactor="1.04" vaporized=""/>
    <tripinfo id="f_0.4" depart="515.00" departLane="E0_0" departPos="7.20" departSpeed="0.00" departDelay="0.72" arrival="2307.00" arrivalLane="E5_0" arrivalPos="300.00" arrivalSpeed="13.39" duration="1792.00" routeLength="10003.87" waitingTime="961.00" waitingCount="2" stopTime="0.00" timeLoss="1070.32" rerouteNo="0" devices="tripinfo_f_0.4" vType="car_0" speedFactor="1.02" vaporized=""/>
    <tripinfo id="f_0.5" depart="643.00" departLane="E0_0" departPos="7.20" departSpeed="0.00" departDelay="0.15" arrival="3093.00" arrivalLane="E5_0" arrivalPos="300.00" arrivalSpeed="11.72" duration="2450.00" routeLength="10003.87" waitingTime="1568.00" waitingCount="3" stopTime="0.00" timeLoss="1661.19" rerouteNo="0" devices="tripinfo_f_0.5" vType="car_0" speedFactor="0.92" vaporized=""/>
    <tripinfo id="f_0.6" depart="772.00" departLane="E0_0" departPos="7.20" departSpeed="0.00" departDelay="0.57" arrival="3095.00" arrivalLane="E5_0" arrivalPos="300.00" arrivalSpeed="13.00" duration="2323.00" routeLength="10003.87" waitingTime="1454.00" waitingCount="2" stopTime="0.00" timeLoss="1600.31" rerouteNo="0" devices="tripinfo_f_0.6" vType="car_0" speedFactor="1.02" vaporized=""/>
    <tripinfo id="f_0.7" depart="900.00" departLane="E0_0" departPos="7.20" departSpeed="0.00" departDelay="0.00" arrival="3097.00" arrivalLane="E5_0" arrivalPos="300.00" arrivalSpeed="12.83" duration="2197.00" routeLength="10003.87" waitingTime="1320.00" waitingCount="3" stopTime="0.00" timeLoss="1431.10" rerouteNo="0" devices="tripinfo_f_0.7" vType="car_0" speedFactor="0.94" vaporized=""/>
    <tripinfo id="f_0.8" depart="1029.00" departLane="E0_0" departPos="7.20" departSpeed="0.00" departDelay="0.43" arrival="3099.00" arrivalLane="E5_0" arrivalPos="300.00" arrivalSpeed="13.01" duration="2070.00" routeLength="10003.87" waitingTime="1193.00" waitingCount="2" stopTime="0.00" timeLoss="1324.34" rerouteNo="0" devices="tripinfo_f_0.8" vType="car_0" speedFactor="0.97" vaporized=""/>
    <tripinfo id="f_0.9" depart="1158.00" departLane="E0_0" departPos="7.20" departSpeed="0.00" departDelay="0.86" arrival="3101.00" arrivalLane="E5_0" arrivalPos="300.00" arrivalSpeed="12.56" duration="1943.00" routeLength="10003.87" waitingTime="1062.00" waitingCount="3" stopTime="0.00" timeLoss="1165.65" rerouteNo="0" devices="tripinfo_f_0.9" vType="car_0" speedFactor="0.93" vaporized=""/>
    <tripinfo id="f_0.10" depart="1286.00" departLane="E0_0" departPos="7.20" departSpeed="0.00" departDelay="0.29" arrival="3830.00" arrivalLane="E5_0" arrivalPos="300.00" arrivalSpeed="13.71" duration="2544.00" routeLength="10003.87" waitingTime="1723.00" waitingCount="4" stopTime="0.00" timeLoss="1822.16" rerouteNo="0" devices="tripinfo_f_0.10" vType="car_0" speedFactor="1.05" vaporized=""/>
    <tripinfo id="f_0.11" depart="1415.00" departLane="E0_0" departPos="7.20" departSpeed="0.00" departDelay="0.72" arrival="3832.00" arrivalLane="E5_0" arrivalPos="300.00" arrivalSpeed="13.62" duration="2417.00" routeLength="10003.87" waitingTime="1591.00" waitingCount="3" stopTime="0.00" timeLoss="1694.78" rerouteNo="0" devices="tripinfo_f_0.11" vType="car_0" speedFactor="1.01" vaporized=""/>
    <tripinfo id="f_0.12" depart="1543.00" departLane="E0_0" departPos="7.20" departSpeed="0.00" departDelay="0.15" arrival="3834.00" arrivalLane="E5_0" arrivalPos="300.00" arrivalSpeed="12.99" duration="2291.00" routeLength="10003.87" waitingTime="1483.00" waitingCount="3" stopTime="0.00" timeLoss="1569.35" rerouteNo="0" devices="tripinfo_f_0.12" vType="car_0" speedFactor="1.02" vaporized=""/>
    <tripinfo id="f_0.13" depart="1672.00" departLane="E0_0" departPos="7.20" departSpeed="0.00" departDelay="0.58" arrival="3836.00" arrivalLane="E5_0" arrivalPos="300.00" arrivalSpeed="13.65" duration="2164.00" routeLength="10003.87" waitingTime="1358.00" waitingCount="2" stopTime="0.00" timeLoss="1441.95" rerouteNo="0" devices="tripinfo_f_0.13" vType="car_0" speedFactor="1.06" vaporized=""/>
    <tripinfo id="f_0.14" depart="1800.00" departLane="E0_0" departPos="7.20" departSpeed="0.00" departDelay="0.01" arrival="3842.00" arrivalLane="E5_0" arrivalPos="300.00" arrivalSpeed="13.39" duration="2042.00" routeLength="10003.87" waitingTime="1234.00" waitingCount="2" stopTime="0.00" timeLoss="1317.46" rerouteNo="0" devices="tripinfo_f_0.14" vType="car_0" speedFactor="1.00" vaporized=""/>
    <tripinfo id="f_0.15" depart="1929.00" departLane="E0_0" departPos="7.20" departSpeed="0.00" departDelay="0.44" arrival="4613.00" arrivalLane="E5_0" arrivalPos="300.00" arrivalSpeed="12.25" duration="2684.00" routeLength="10003.87" waitingTime="1843.00" waitingCount="4" stopTime="0.00" timeLoss="1934.70" rerouteNo="0" devices="tripinfo_f_0.15" vType="car_0" speedFactor="0.96" vaporized=""/>
    <tripinfo id="f_0.16" depart="2058.00" departLane="E0_0" departPos="7.20" departSpeed="0.00" departDelay="0.86" arrival="4628.00" arrivalLane="E5_0" arrivalPos="300.00" arrivalSpeed="12.56" duration="2570.00" routeLength="10003.87" waitingTime="1708.00" waitingCount="3" stopTime="0.00" timeLoss="1801.16" rerouteNo="0" devices="tripinfo_f_0.16" vType="car_0" speedFactor="0.94" vaporized=""/>
    <tripinfo id="f_0.17" depart="2186.00" departLane="E0_0" departPos="7.20" departSpeed="0.00" departDelay="0.29" arrival="4630.00" arrivalLane="E5_0" arrivalPos="300.00" arrivalSpeed="12.31" duration="2444.00" routeLength="10003.87" waitingTime="1576.00" waitingCount="3" stopTime="0.00" timeLoss="1699.89" rerouteNo="0" devices="tripinfo_f_0.17" vType="car_0" speedFactor="0.97" vaporized=""/>
    <tripinfo id="f_0.18" depart="2315.00" departLane="E0_0" departPos="7.20" departSpeed="0.00" departDelay="0.72" arrival="4631.00" arrivalLane="E5_0" arrivalPos="300.00" arrivalSpeed="13.41" duration="2316.00" routeLength="10003.87" waitingTime="1460.00" waitingCount="3" stopTime="0.00" timeLoss="1570.37" rerouteNo="0" devices="tripinfo_f_0.18" vType="car_0" speedFactor="0.97" vaporized=""/>
    <tripinfo id="f_0.19" depart="2443.00" departLane="E0_0" departPos="7.20" departSpeed="0.00" departDelay="0.15" arrival="5371.00" arrivalLane="E5_0" arrivalPos="300.00" arrivalSpeed="13.82" duration="2928.00" routeLength="10003.87" waitingTime="2084.00" waitingCount="4" stopTime="0.00" timeLoss="2206.02" rerouteNo="0" devices="tripinfo_f_0.19" vType="car_0" speedFactor="1.08" vaporized=""/>
    <tripinfo id="f_0.20" depart="2572.00" departLane="E0_0" departPos="7.20" departSpeed="0.00" departDelay="0.58" arrival="5373.00" arrivalLane="E5_0" arrivalPos="300.00" arrivalSpeed="13.15" duration="2801.00" routeLength="10003.87" waitingTime="1980.00" waitingCount="3" stopTime="0.00" timeLoss="2079.14" rerouteNo="0" devices="tripinfo_f_0.20" vType="car_0" speedFactor="1.01" vaporized=""/>
    <tripinfo id="f_0.21" depart="2700.00" departLane="E0_0" departPos="7.20" departSpeed="0.00" departDelay="0.01" arrival="5375.00" arrivalLane="E5_0" arrivalPos="300.00" arrivalSpeed="13.28" duration="2675.00" routeLength="10003.87" waitingTime="1852.00" waitingCount="4" stopTime="0.00" timeLoss="1953.13" rerouteNo="0" devices="tripinfo_f_0.21" vType="car_0" speedFactor="1.01" vaporized=""/>
    <tripinfo id="f_0.22" depart="2829.00" departLane="E0_0" departPos="7.20" departSpeed="0.00" departDelay="0.44" arrival="5383.00" arrivalLane="E5_0" arrivalPos="300.00" arrivalSpeed="12.74" duration="2554.00" routeLength="10003.87" waitingTime="1728.00" waitingCount="5" stopTime="0.00" timeLoss="1823.06" rerouteNo="0" devices="tripinfo_f_0.22" vType="car_0" speedFactor="0.99" vaporized=""/>
    <tripinfo id="f_0.23" depart="2958.00" departLane="E0_0" departPos="7.20" departSpeed="0.00" departDelay="0.87" arrival="5401.00" arrivalLane="E5_0" arrivalPos="300.00" arrivalSpeed="12.26" duration="2443.00" routeLength="10003.87" waitingTime="1588.00" waitingCount="4" stopTime="0.00" timeLoss="1678.39" rerouteNo="0" devices="tripinfo_f_0.23" vType="car_0" speedFactor="0.94" vaporized=""/>
    <tripinfo id="f_0.24" depart="3086.00" departLane="E0_0" departPos="7.20" departSpeed="0.00" departDelay="0.30" arrival="6177.00" arrivalLane="E5_0" arrivalPos="300.00" arrivalSpeed="12.07" duration="3091.00" routeLength="10003.87" waitingTime="2210.00" waitingCount="3" stopTime="0.00" timeLoss="2300.25" rerouteNo="0" devices="tripinfo_f_0.24" vType="car_0" speedFactor="0.91" vaporized=""/>
    <tripinfo id="f_0.25" depart="3215.00" departLane="E0_0" departPos="7.20" departSpeed="0.00" departDelay="0.73" arrival="6179.00" arrivalLane="E5_0" arrivalPos="300.00" arrivalSpeed="12.75" duration="2964.00" routeLength="10003.87" waitingTime="2077.00" waitingCount="4" stopTime="0.00" timeLoss="2192.85" rerouteNo="0" devices="tripinfo_f_0.25" vType="car_0" speedFactor="0.94" vaporized=""/>
    <tripinfo id="f_0.26" depart="3343.00" departLane="E0_0" departPos="7.20" departSpeed="0.00" departDelay="0.15" arrival="6181.00" arrivalLane="E5_0" arrivalPos="300.00" arrivalSpeed="13.24" duration="2838.00" routeLength="10003.87" waitingTime="1945.00" waitingCount="3" stopTime="0.00" timeLoss="2084.33" rerouteNo="0" devices="tripinfo_f_0.26" vType="car_0" speedFactor="0.96" vaporized=""/>
    <tripinfo id="f_0.27" depart="3472.00" departLane="E0_0" departPos="7.20" departSpeed="0.00" departDelay="0.58" arrival="6182.00" arrivalLane="E5_0" arrivalPos="300.00" arrivalSpeed="13.40" duration="2710.00" routeLength="10003.87" waitingTime="1820.00" waitingCount="5" stopTime="0.00" timeLoss="1969.68" rerouteNo="0" devices="tripinfo_f_0.27" vType="car_0" speedFactor="0.97" vaporized=""/>
    <tripinfo id="f_0.28" depart="3600.00" departLane="E0_0" departPos="7.20" departSpeed="0.00" departDelay="0.01" arrival="6184.00" arrivalLane="E5_0" arrivalPos="300.00" arrivalSpeed="12.89" duration="2584.00" routeLength="10003.87" waitingTime="1691.00" waitingCount="7" stopTime="0.00" timeLoss="1862.14" rerouteNo="0" devices="tripinfo_f_0.28" vType="car_0" speedFactor="1.07" vaporized=""/>
</tripinfos>
