<?xml version="1.0" encoding="UTF-8"?>

<!-- generated on 2025-01-09 14:00:04 by Eclipse SUMO sumo Version v1_20_0+0085-e155ab8699b
<configuration xmlns:xsi="http://www.w3.org/2001/XMLSchema-instance" xsi:noNamespaceSchemaLocation="http://sumo.dlr.de/xsd/sumoConfiguration.xsd">

    <input>
        <net-file value="/home/jian/sumo/project/rayRL/one_way_xml/one_way.net.xml"/>
        <route-files value="/home/jian/sumo/project/rayRL/one_way_xml/one_way.rou.xml"/>
    </input>

    <output>
        <output-prefix value="31-"/>
        <tripinfo-output value="/home/jian/sumo/project/rayRL/one_way_xml/data/default/tripinfo/tripinfo-output.xml"/>
    </output>

    <time>
        <step-length value="1.0"/>
    </time>

    <processing>
        <step-method.ballistic value="True"/>
    </processing>

    <report>
        <no-warnings value="True"/>
        <no-step-log value="True"/>
    </report>

    <traci_server>
        <remote-port value="53719"/>
    </traci_server>

    <gui_only>
        <quit-on-end value="True"/>
        <start value="True"/>
    </gui_only>

</configuration>
-->

<tripinfos xmlns:xsi="http://www.w3.org/2001/XMLSchema-instance" xsi:noNamespaceSchemaLocation="http://sumo.dlr.de/xsd/tripinfo_file.xsd">
    <tripinfo id="f_0.0" depart="0.00" departLane="E0_0" departPos="7.20" departSpeed="0.00" departDelay="0.00" arrival="1520.00" arrivalLane="E5_0" arrivalPos="300.00" arrivalSpeed="13.45" duration="1520.00" routeLength="10003.87" waitingTime="736.00" waitingCount="1" stopTime="0.00" timeLoss="798.36" rerouteNo="0" devices="tripinfo_f_0.0" vType="car_0" speedFactor="1.03" vaporized=""/>
    <tripinfo id="f_0.1" depart="117.00" departLane="E0_0" departPos="7.20" departSpeed="0.00" departDelay="0.87" arrival="2300.00" arrivalLane="E5_0" arrivalPos="300.00" arrivalSpeed="12.88" duration="2183.00" routeLength="10003.87" waitingTime="1357.00" waitingCount="3" stopTime="0.00" timeLoss="1438.02" rerouteNo="0" devices="tripinfo_f_0.1" vType="car_0" speedFactor="0.97" vaporized=""/>
    <tripinfo id="f_0.2" depart="233.00" departLane="E0_0" departPos="7.20" departSpeed="0.00" departDelay="0.74" arrival="2302.00" arrivalLane="E5_0" arrivalPos="300.00" arrivalSpeed="12.92" duration="2069.00" routeLength="10003.87" waitingTime="1235.00" waitingCount="3" stopTime="0.00" timeLoss="1346.30" rerouteNo="0" devices="tripinfo_f_0.2" vType="car_0" speedFactor="1.01" vaporized=""/>
    <tripinfo id="f_0.3" depart="349.00" departLane="E0_0" departPos="7.20" departSpeed="0.00" departDelay="0.61" arrival="2304.00" arrivalLane="E5_0" arrivalPos="300.00" arrivalSpeed="13.22" duration="1955.00" routeLength="10003.87" waitingTime="1124.00" waitingCount="2" stopTime="0.00" timeLoss="1232.88" rerouteNo="0" devices="tripinfo_f_0.3" vType="car_0" speedFactor="1.04" vaporized=""/>
    <tripinfo id="f_0.4" depart="465.00" departLane="E0_0" departPos="7.20" departSpeed="0.00" departDelay="0.48" arrival="2306.00" arrivalLane="E5_0" arrivalPos="300.00" arrivalSpeed="13.66" duration="1841.00" routeLength="10003.87" waitingTime="1026.00" waitingCount="2" stopTime="0.00" timeLoss="1119.04" rerouteNo="0" devices="tripinfo_f_0.4" vType="car_0" speedFactor="1.02" vaporized=""/>
    <tripinfo id="f_0.5" depart="581.00" departLane="E0_0" departPos="7.20" departSpeed="0.00" departDelay="0.36" arrival="3093.00" arrivalLane="E5_0" arrivalPos="300.00" arrivalSpeed="11.67" duration="2512.00" routeLength="10003.87" waitingTime="1631.00" waitingCount="4" stopTime="0.00" timeLoss="1724.27" rerouteNo="0" devices="tripinfo_f_0.5" vType="car_0" speedFactor="0.92" vaporized=""/>
    <tripinfo id="f_0.6" depart="697.00" departLane="E0_0" departPos="7.20" departSpeed="0.00" departDelay="0.23" arrival="3095.00" arrivalLane="E5_0" arrivalPos="300.00" arrivalSpeed="13.26" duration="2398.00" routeLength="10003.87" waitingTime="1516.00" waitingCount="5" stopTime="0.00" timeLoss="1676.77" rerouteNo="0" devices="tripinfo_f_0.6" vType="car_0" speedFactor="1.02" vaporized=""/>
    <tripinfo id="f_0.7" depart="813.00" departLane="E0_0" departPos="7.20" departSpeed="0.00" departDelay="0.10" arrival="3097.00" arrivalLane="E5_0" arrivalPos="300.00" arrivalSpeed="12.57" duration="2284.00" routeLength="10003.87" waitingTime="1409.00" waitingCount="2" stopTime="0.00" timeLoss="1518.71" rerouteNo="0" devices="tripinfo_f_0.7" vType="car_0" speedFactor="0.94" vaporized=""/>
    <tripinfo id="f_0.8" depart="930.00" departLane="E0_0" departPos="7.20" departSpeed="0.00" departDelay="0.97" arrival="3843.00" arrivalLane="E5_0" arrivalPos="300.00" arrivalSpeed="13.10" duration="2913.00" routeLength="10003.87" waitingTime="2076.00" waitingCount="5" stopTime="0.00" timeLoss="2168.03" rerouteNo="0" devices="tripinfo_f_0.8" vType="car_0" speedFactor="0.97" vaporized=""/>
    <tripinfo id="f_0.9" depart="1046.00" departLane="E0_0" departPos="7.20" departSpeed="0.00" departDelay="0.84" arrival="3865.00" arrivalLane="E5_0" arrivalPos="300.00" arrivalSpeed="12.31" duration="2819.00" routeLength="10003.87" waitingTime="1941.00" waitingCount="5" stopTime="0.00" timeLoss="2041.55" rerouteNo="0" devices="tripinfo_f_0.9" vType="car_0" speedFactor="0.93" vaporized=""/>
    <tripinfo id="f_0.10" depart="1162.00" departLane="E0_0" departPos="7.20" departSpeed="0.00" departDelay="0.71" arrival="3867.00" arrivalLane="E5_0" arrivalPos="300.00" arrivalSpeed="12.81" duration="2705.00" routeLength="10003.87" waitingTime="1827.00" waitingCount="6" stopTime="0.00" timeLoss="1982.93" rerouteNo="0" devices="tripinfo_f_0.10" vType="car_0" speedFactor="1.05" vaporized=""/>
    <tripinfo id="f_0.11" depart="1278.00" departLane="E0_0" departPos="7.20" departSpeed="0.00" departDelay="0.58" arrival="3869.00" arrivalLane="E5_0" arrivalPos="300.00" arrivalSpeed="13.53" duration="2591.00" routeLength="10003.87" waitingTime="1707.00" waitingCount="7" stopTime="0.00" timeLoss="1868.65" rerouteNo="0" devices="tripinfo_f_0.11" vType="car_0" speedFactor="1.01" vaporized=""/>
    <tripinfo id="f_0.12" depart="1394.00" departLane="E0_0" departPos="7.20" departSpeed="0.00" departDelay="0.45" arrival="3871.00" arrivalLane="E5_0" arrivalPos="300.00" arrivalSpeed="13.50" duration="2477.00" routeLength="10003.87" waitingTime="1591.00" waitingCount="5" stopTime="0.00" timeLoss="1754.75" rerouteNo="0" devices="tripinfo_f_0.12" vType="car_0" speedFactor="1.02" vaporized=""/>
    <tripinfo id="f_0.13" depart="1510.00" departLane="E0_0" departPos="7.20" departSpeed="0.00" departDelay="0.32" arrival="4599.00" arrivalLane="E5_0" arrivalPos="300.00" arrivalSpeed="12.67" duration="3089.00" routeLength="10003.87" waitingTime="2253.00" waitingCount="6" stopTime="0.00" timeLoss="2367.46" rerouteNo="0" devices="tripinfo_f_0.13" vType="car_0" speedFactor="1.06" vaporized=""/>
    <tripinfo id="f_0.14" depart="1626.00" departLane="E0_0" departPos="7.20" departSpeed="0.00" departDelay="0.19" arrival="4604.00" arrivalLane="E5_0" arrivalPos="300.00" arrivalSpeed="13.59" duration="2978.00" routeLength="10003.87" waitingTime="2153.00" waitingCount="3" stopTime="0.00" timeLoss="2253.09" rerouteNo="0" devices="tripinfo_f_0.14" vType="car_0" speedFactor="1.00" vaporized=""/>
    <tripinfo id="f_0.15" depart="1742.00" departLane="E0_0" departPos="7.20" departSpeed="0.00" departDelay="0.07" arrival="4618.00" arrivalLane="E5_0" arrivalPos="300.00" arrivalSpeed="12.91" duration="2876.00" routeLength="10003.87" waitingTime="2034.00" waitingCount="5" stopTime="0.00" timeLoss="2127.22" rerouteNo="0" devices="tripinfo_f_0.15" vType="car_0" speedFactor="0.96" vaporized=""/>
    <tripinfo id="f_0.16" depart="1859.00" departLane="E0_0" departPos="7.20" departSpeed="0.00" departDelay="0.94" arrival="4632.00" arrivalLane="E5_0" arrivalPos="300.00" arrivalSpeed="12.90" duration="2773.00" routeLength="10003.87" waitingTime="1906.00" waitingCount="3" stopTime="0.00" timeLoss="2004.08" rerouteNo="0" devices="tripinfo_f_0.16" vType="car_0" speedFactor="0.94" vaporized=""/>
    <tripinfo id="f_0.17" depart="1975.00" departLane="E0_0" departPos="7.20" departSpeed="0.00" departDelay="0.81" arrival="4634.00" arrivalLane="E5_0" arrivalPos="300.00" arrivalSpeed="13.16" duration="2659.00" routeLength="10003.87" waitingTime="1795.00" waitingCount="5" stopTime="0.00" timeLoss="1915.11" rerouteNo="0" devices="tripinfo_f_0.17" vType="car_0" speedFactor="0.97" vaporized=""/>
    <tripinfo id="f_0.18" depart="2091.00" departLane="E0_0" departPos="7.20" departSpeed="0.00" departDelay="0.68" arrival="5385.00" arrivalLane="E5_0" arrivalPos="300.00" arrivalSpeed="13.22" duration="3294.00" routeLength="10003.87" waitingTime="2436.00" waitingCount="5" stopTime="0.00" timeLoss="2548.32" rerouteNo="0" devices="tripinfo_f_0.18" vType="car_0" speedFactor="0.97" vaporized=""/>
    <tripinfo id="f_0.19" depart="2207.00" departLane="E0_0" departPos="7.20" departSpeed="0.00" departDelay="0.55" arrival="5387.00" arrivalLane="E5_0" arrivalPos="300.00" arrivalSpeed="13.67" duration="3180.00" routeLength="10003.87" waitingTime="2327.00" waitingCount="8" stopTime="0.00" timeLoss="2458.44" rerouteNo="0" devices="tripinfo_f_0.19" vType="car_0" speedFactor="1.08" vaporized=""/>
    <tripinfo id="f_0.20" depart="2323.00" departLane="E0_0" departPos="7.20" departSpeed="0.00" departDelay="0.42" arrival="5389.00" arrivalLane="E5_0" arrivalPos="300.00" arrivalSpeed="12.97" duration="3066.00" routeLength="10003.87" waitingTime="2225.00" waitingCount="5" stopTime="0.00" timeLoss="2343.92" rerouteNo="0" devices="tripinfo_f_0.20" vType="car_0" speedFactor="1.01" vaporized=""/>
    <tripinfo id="f_0.21" depart="2439.00" departLane="E0_0" departPos="7.20" departSpeed="0.00" departDelay="0.29" arrival="5391.00" arrivalLane="E5_0" arrivalPos="300.00" arrivalSpeed="13.68" duration="2952.00" routeLength="10003.87" waitingTime="2103.00" waitingCount="6" stopTime="0.00" timeLoss="2230.28" rerouteNo="0" devices="tripinfo_f_0.21" vType="car_0" speedFactor="1.01" vaporized=""/>
    <tripinfo id="f_0.22" depart="2555.00" departLane="E0_0" departPos="7.20" departSpeed="0.00" departDelay="0.16" arrival="6149.00" arrivalLane="E5_0" arrivalPos="300.00" arrivalSpeed="12.98" duration="3594.00" routeLength="10003.87" waitingTime="2754.00" waitingCount="7" stopTime="0.00" timeLoss="2862.69" rerouteNo="0" devices="tripinfo_f_0.22" vType="car_0" speedFactor="0.99" vaporized=""/>
    <tripinfo id="f_0.23" depart="2671.00" departLane="E0_0" departPos="7.20" departSpeed="0.00" departDelay="0.03" arrival="6168.00" arrivalLane="E5_0" arrivalPos="300.00" arrivalSpeed="11.93" duration="3497.00" routeLength="10003.87" waitingTime="2617.00" waitingCount="6" stopTime="0.00" timeLoss="2733.46" rerouteNo="0" devices="tripinfo_f_0.23" vType="car_0" speedFactor="0.94" vaporized=""/>
    <tripinfo id="f_0.24" depart="2788.00" departLane="E0_0" departPos="7.20" departSpeed="0.00" departDelay="0.90" arrival="6183.00" arrivalLane="E5_0" arrivalPos="300.00" arrivalSpeed="12.08" duration="3395.00" routeLength="10003.87" waitingTime="2482.00" waitingCount="5" stopTime="0.00" timeLoss="2604.36" rerouteNo="0" devices="tripinfo_f_0.24" vType="car_0" speedFactor="0.91" vaporized=""/>
    <tripinfo id="f_0.25" depart="2904.00" departLane="E0_0" departPos="7.20" departSpeed="0.00" departDelay="0.78" arrival="6185.00" arrivalLane="E5_0" arrivalPos="300.00" arrivalSpeed="12.23" duration="3281.00" routeLength="10003.87" waitingTime="2373.00" waitingCount="7" stopTime="0.00" timeLoss="2509.88" rerouteNo="0" devices="tripinfo_f_0.25" vType="car_0" speedFactor="0.94" vaporized=""/>
    <tripinfo id="f_0.26" depart="3020.00" departLane="E0_0" departPos="7.20" departSpeed="0.00" departDelay="0.65" arrival="6187.00" arrivalLane="E5_0" arrivalPos="300.00" arrivalSpeed="12.88" duration="3167.00" routeLength="10003.87" waitingTime="2255.00" waitingCount="9" stopTime="0.00" timeLoss="2414.73" rerouteNo="0" devices="tripinfo_f_0.26" vType="car_0" speedFactor="0.96" vaporized=""/>
    <tripinfo id="f_0.27" depart="3136.00" departLane="E0_0" departPos="7.20" departSpeed="0.00" departDelay="0.52" arrival="6921.00" arrivalLane="E5_0" arrivalPos="300.00" arrivalSpeed="12.51" duration="3785.00" routeLength="10003.87" waitingTime="2901.00" waitingCount="9" stopTime="0.00" timeLoss="3043.81" rerouteNo="0" devices="tripinfo_f_0.27" vType="car_0" speedFactor="0.97" vaporized=""/>
    <tripinfo id="f_0.28" depart="3252.00" departLane="E0_0" departPos="7.20" departSpeed="0.00" departDelay="0.39" arrival="6923.00" arrivalLane="E5_0" arrivalPos="300.00" arrivalSpeed="13.89" duration="3671.00" routeLength="10003.87" waitingTime="2823.00" waitingCount="8" stopTime="0.00" timeLoss="2948.69" rerouteNo="0" devices="tripinfo_f_0.28" vType="car_0" speedFactor="1.07" vaporized=""/>
    <tripinfo id="f_0.29" depart="3368.00" departLane="E0_0" departPos="7.20" departSpeed="0.00" departDelay="0.26" arrival="6930.00" arrivalLane="E5_0" arrivalPos="300.00" arrivalSpeed="13.03" duration="3562.00" routeLength="10003.87" waitingTime="2705.00" waitingCount="7" stopTime="0.00" timeLoss="2814.64" rerouteNo="0" devices="tripinfo_f_0.29" vType="car_0" speedFactor="0.97" vaporized=""/>
    <tripinfo id="f_0.30" depart="3484.00" departLane="E0_0" departPos="7.20" departSpeed="0.00" departDelay="0.13" arrival="6932.00" arrivalLane="E5_0" arrivalPos="300.00" arrivalSpeed="13.54" duration="3448.00" routeLength="10003.87" waitingTime="2589.00" waitingCount="10" stopTime="0.00" timeLoss="2725.74" rerouteNo="0" devices="tripinfo_f_0.30" vType="car_0" speedFactor="1.09" vaporized=""/>
    <tripinfo id="f_0.31" depart="3600.00" departLane="E0_0" departPos="7.20" departSpeed="0.00" departDelay="0.00" arrival="6934.00" arrivalLane="E5_0" arrivalPos="300.00" arrivalSpeed="13.44" duration="3334.00" routeLength="10003.87" waitingTime="2470.00" waitingCount="8" stopTime="0.00" timeLoss="2612.24" rerouteNo="0" devices="tripinfo_f_0.31" vType="car_0" speedFactor="1.08" vaporized=""/>
</tripinfos>
