<?xml version="1.0" encoding="UTF-8"?>

<!-- generated on 2025-01-09 14:00:12 by Eclipse SUMO sumo Version v1_20_0+0085-e155ab8699b
<configuration xmlns:xsi="http://www.w3.org/2001/XMLSchema-instance" xsi:noNamespaceSchemaLocation="http://sumo.dlr.de/xsd/sumoConfiguration.xsd">

    <input>
        <net-file value="/home/jian/sumo/project/rayRL/one_way_xml/one_way.net.xml"/>
        <route-files value="/home/jian/sumo/project/rayRL/one_way_xml/one_way.rou.xml"/>
    </input>

    <output>
        <output-prefix value="33-"/>
        <tripinfo-output value="/home/jian/sumo/project/rayRL/one_way_xml/data/default/tripinfo/tripinfo-output.xml"/>
    </output>

    <time>
        <step-length value="1.0"/>
    </time>

    <processing>
        <step-method.ballistic value="True"/>
    </processing>

    <report>
        <no-warnings value="True"/>
        <no-step-log value="True"/>
    </report>

    <traci_server>
        <remote-port value="39503"/>
    </traci_server>

    <gui_only>
        <quit-on-end value="True"/>
        <start value="True"/>
    </gui_only>

</configuration>
-->

<tripinfos xmlns:xsi="http://www.w3.org/2001/XMLSchema-instance" xsi:noNamespaceSchemaLocation="http://sumo.dlr.de/xsd/tripinfo_file.xsd">
    <tripinfo id="f_0.0" depart="0.00" departLane="E0_0" departPos="7.20" departSpeed="0.00" departDelay="0.00" arrival="1521.00" arrivalLane="E5_0" arrivalPos="300.00" arrivalSpeed="13.45" duration="1521.00" routeLength="10003.87" waitingTime="736.00" waitingCount="1" stopTime="0.00" timeLoss="798.58" rerouteNo="0" devices="tripinfo_f_0.0" vType="car_0" speedFactor="1.03" vaporized=""/>
    <tripinfo id="f_0.1" depart="110.00" departLane="E0_0" departPos="7.20" departSpeed="0.00" departDelay="0.91" arrival="2301.00" arrivalLane="E5_0" arrivalPos="300.00" arrivalSpeed="13.46" duration="2191.00" routeLength="10003.87" waitingTime="1368.00" waitingCount="2" stopTime="0.00" timeLoss="1446.24" rerouteNo="0" devices="tripinfo_f_0.1" vType="car_0" speedFactor="0.97" vaporized=""/>
    <tripinfo id="f_0.2" depart="219.00" departLane="E0_0" departPos="7.20" departSpeed="0.00" departDelay="0.82" arrival="2303.00" arrivalLane="E5_0" arrivalPos="300.00" arrivalSpeed="13.04" duration="2084.00" routeLength="10003.87" waitingTime="1255.00" waitingCount="3" stopTime="0.00" timeLoss="1362.29" rerouteNo="0" devices="tripinfo_f_0.2" vType="car_0" speedFactor="1.01" vaporized=""/>
    <tripinfo id="f_0.3" depart="328.00" departLane="E0_0" departPos="7.20" departSpeed="0.00" departDelay="0.73" arrival="2305.00" arrivalLane="E5_0" arrivalPos="300.00" arrivalSpeed="13.66" duration="1977.00" routeLength="10003.87" waitingTime="1147.00" waitingCount="2" stopTime="0.00" timeLoss="1254.89" rerouteNo="0" devices="tripinfo_f_0.3" vType="car_0" speedFactor="1.04" vaporized=""/>
    <tripinfo id="f_0.4" depart="437.00" departLane="E0_0" departPos="7.20" departSpeed="0.00" departDelay="0.64" arrival="2307.00" arrivalLane="E5_0" arrivalPos="300.00" arrivalSpeed="13.39" duration="1870.00" routeLength="10003.87" waitingTime="1038.00" waitingCount="2" stopTime="0.00" timeLoss="1147.83" rerouteNo="0" devices="tripinfo_f_0.4" vType="car_0" speedFactor="1.02" vaporized=""/>
    <tripinfo id="f_0.5" depart="546.00" departLane="E0_0" departPos="7.20" departSpeed="0.00" departDelay="0.55" arrival="3093.00" arrivalLane="E5_0" arrivalPos="300.00" arrivalSpeed="11.83" duration="2547.00" routeLength="10003.87" waitingTime="1665.00" waitingCount="3" stopTime="0.00" timeLoss="1758.41" rerouteNo="0" devices="tripinfo_f_0.5" vType="car_0" speedFactor="0.92" vaporized=""/>
    <tripinfo id="f_0.6" depart="655.00" departLane="E0_0" departPos="7.20" departSpeed="0.00" departDelay="0.45" arrival="3095.00" arrivalLane="E5_0" arrivalPos="300.00" arrivalSpeed="13.41" duration="2440.00" routeLength="10003.87" waitingTime="1555.00" waitingCount="4" stopTime="0.00" timeLoss="1717.92" rerouteNo="0" devices="tripinfo_f_0.6" vType="car_0" speedFactor="1.02" vaporized=""/>
    <tripinfo id="f_0.7" depart="764.00" departLane="E0_0" departPos="7.20" departSpeed="0.00" departDelay="0.36" arrival="3097.00" arrivalLane="E5_0" arrivalPos="300.00" arrivalSpeed="12.98" duration="2333.00" routeLength="10003.87" waitingTime="1461.00" waitingCount="3" stopTime="0.00" timeLoss="1566.93" rerouteNo="0" devices="tripinfo_f_0.7" vType="car_0" speedFactor="0.94" vaporized=""/>
    <tripinfo id="f_0.8" depart="873.00" departLane="E0_0" departPos="7.20" departSpeed="0.00" departDelay="0.27" arrival="3099.00" arrivalLane="E5_0" arrivalPos="300.00" arrivalSpeed="12.84" duration="2226.00" routeLength="10003.87" waitingTime="1352.00" waitingCount="4" stopTime="0.00" timeLoss="1481.21" rerouteNo="0" devices="tripinfo_f_0.8" vType="car_0" speedFactor="0.97" vaporized=""/>
    <tripinfo id="f_0.9" depart="982.00" departLane="E0_0" departPos="7.20" departSpeed="0.00" departDelay="0.18" arrival="3858.00" arrivalLane="E5_0" arrivalPos="300.00" arrivalSpeed="12.16" duration="2876.00" routeLength="10003.87" waitingTime="2004.00" waitingCount="3" stopTime="0.00" timeLoss="2098.53" rerouteNo="0" devices="tripinfo_f_0.9" vType="car_0" speedFactor="0.93" vaporized=""/>
    <tripinfo id="f_0.10" depart="1091.00" departLane="E0_0" departPos="7.20" departSpeed="0.00" departDelay="0.09" arrival="3860.00" arrivalLane="E5_0" arrivalPos="300.00" arrivalSpeed="13.19" duration="2769.00" routeLength="10003.87" waitingTime="1895.00" waitingCount="3" stopTime="0.00" timeLoss="2046.96" rerouteNo="0" devices="tripinfo_f_0.10" vType="car_0" speedFactor="1.05" vaporized=""/>
    <tripinfo id="f_0.11" depart="1201.00" departLane="E0_0" departPos="7.20" departSpeed="0.00" departDelay="1.00" arrival="3861.00" arrivalLane="E5_0" arrivalPos="300.00" arrivalSpeed="13.34" duration="2660.00" routeLength="10003.87" waitingTime="1783.00" waitingCount="4" stopTime="0.00" timeLoss="1938.66" rerouteNo="0" devices="tripinfo_f_0.11" vType="car_0" speedFactor="1.01" vaporized=""/>
    <tripinfo id="f_0.12" depart="1310.00" departLane="E0_0" departPos="7.20" departSpeed="0.00" departDelay="0.91" arrival="3863.00" arrivalLane="E5_0" arrivalPos="300.00" arrivalSpeed="13.62" duration="2553.00" routeLength="10003.87" waitingTime="1675.00" waitingCount="3" stopTime="0.00" timeLoss="1831.19" rerouteNo="0" devices="tripinfo_f_0.12" vType="car_0" speedFactor="1.02" vaporized=""/>
    <tripinfo id="f_0.13" depart="1419.00" departLane="E0_0" departPos="7.20" departSpeed="0.00" departDelay="0.82" arrival="3865.00" arrivalLane="E5_0" arrivalPos="300.00" arrivalSpeed="12.86" duration="2446.00" routeLength="10003.87" waitingTime="1561.00" waitingCount="6" stopTime="0.00" timeLoss="1724.64" rerouteNo="0" devices="tripinfo_f_0.13" vType="car_0" speedFactor="1.06" vaporized=""/>
    <tripinfo id="f_0.14" depart="1528.00" departLane="E0_0" departPos="7.20" departSpeed="0.00" departDelay="0.73" arrival="4605.00" arrivalLane="E5_0" arrivalPos="300.00" arrivalSpeed="12.75" duration="3077.00" routeLength="10003.87" waitingTime="2239.00" waitingCount="4" stopTime="0.00" timeLoss="2351.80" rerouteNo="0" devices="tripinfo_f_0.14" vType="car_0" speedFactor="1.00" vaporized=""/>
    <tripinfo id="f_0.15" depart="1637.00" departLane="E0_0" departPos="7.20" departSpeed="0.00" departDelay="0.64" arrival="4620.00" arrivalLane="E5_0" arrivalPos="300.00" arrivalSpeed="12.98" duration="2983.00" routeLength="10003.87" waitingTime="2137.00" waitingCount="4" stopTime="0.00" timeLoss="2233.13" rerouteNo="0" devices="tripinfo_f_0.15" vType="car_0" speedFactor="0.96" vaporized=""/>
    <tripinfo id="f_0.16" depart="1746.00" departLane="E0_0" departPos="7.20" departSpeed="0.00" departDelay="0.54" arrival="4634.00" arrivalLane="E5_0" arrivalPos="300.00" arrivalSpeed="13.00" duration="2888.00" routeLength="10003.87" waitingTime="2014.00" waitingCount="3" stopTime="0.00" timeLoss="2119.44" rerouteNo="0" devices="tripinfo_f_0.16" vType="car_0" speedFactor="0.94" vaporized=""/>
    <tripinfo id="f_0.17" depart="1855.00" departLane="E0_0" departPos="7.20" departSpeed="0.00" departDelay="0.45" arrival="4636.00" arrivalLane="E5_0" arrivalPos="300.00" arrivalSpeed="13.29" duration="2781.00" routeLength="10003.87" waitingTime="1901.00" waitingCount="3" stopTime="0.00" timeLoss="2037.36" rerouteNo="0" devices="tripinfo_f_0.17" vType="car_0" speedFactor="0.97" vaporized=""/>
    <tripinfo id="f_0.18" depart="1964.00" departLane="E0_0" departPos="7.20" departSpeed="0.00" departDelay="0.36" arrival="5383.00" arrivalLane="E5_0" arrivalPos="300.00" arrivalSpeed="12.15" duration="3419.00" routeLength="10003.87" waitingTime="2565.00" waitingCount="4" stopTime="0.00" timeLoss="2673.46" rerouteNo="0" devices="tripinfo_f_0.18" vType="car_0" speedFactor="0.97" vaporized=""/>
    <tripinfo id="f_0.19" depart="2073.00" departLane="E0_0" departPos="7.20" departSpeed="0.00" departDelay="0.27" arrival="5385.00" arrivalLane="E5_0" arrivalPos="300.00" arrivalSpeed="12.81" duration="3312.00" routeLength="10003.87" waitingTime="2460.00" waitingCount="7" stopTime="0.00" timeLoss="2590.08" rerouteNo="0" devices="tripinfo_f_0.19" vType="car_0" speedFactor="1.08" vaporized=""/>
    <tripinfo id="f_0.20" depart="2182.00" departLane="E0_0" departPos="7.20" departSpeed="0.00" departDelay="0.18" arrival="5387.00" arrivalLane="E5_0" arrivalPos="300.00" arrivalSpeed="12.84" duration="3205.00" routeLength="10003.87" waitingTime="2349.00" waitingCount="7" stopTime="0.00" timeLoss="2482.48" rerouteNo="0" devices="tripinfo_f_0.20" vType="car_0" speedFactor="1.01" vaporized=""/>
    <tripinfo id="f_0.21" depart="2291.00" departLane="E0_0" departPos="7.20" departSpeed="0.00" departDelay="0.09" arrival="5389.00" arrivalLane="E5_0" arrivalPos="300.00" arrivalSpeed="12.86" duration="3098.00" routeLength="10003.87" waitingTime="2244.00" waitingCount="5" stopTime="0.00" timeLoss="2376.15" rerouteNo="0" devices="tripinfo_f_0.21" vType="car_0" speedFactor="1.01" vaporized=""/>
    <tripinfo id="f_0.22" depart="2401.00" departLane="E0_0" departPos="7.20" departSpeed="0.00" departDelay="1.00" arrival="5391.00" arrivalLane="E5_0" arrivalPos="300.00" arrivalSpeed="12.84" duration="2990.00" routeLength="10003.87" waitingTime="2148.00" waitingCount="4" stopTime="0.00" timeLoss="2259.12" rerouteNo="0" devices="tripinfo_f_0.22" vType="car_0" speedFactor="0.99" vaporized=""/>
    <tripinfo id="f_0.23" depart="2510.00" departLane="E0_0" departPos="7.20" departSpeed="0.00" departDelay="0.91" arrival="6160.00" arrivalLane="E5_0" arrivalPos="300.00" arrivalSpeed="12.07" duration="3650.00" routeLength="10003.87" waitingTime="2773.00" waitingCount="9" stopTime="0.00" timeLoss="2885.95" rerouteNo="0" devices="tripinfo_f_0.23" vType="car_0" speedFactor="0.94" vaporized=""/>
    <tripinfo id="f_0.24" depart="2619.00" departLane="E0_0" departPos="7.20" departSpeed="0.00" departDelay="0.82" arrival="6176.00" arrivalLane="E5_0" arrivalPos="300.00" arrivalSpeed="12.33" duration="3557.00" routeLength="10003.87" waitingTime="2654.00" waitingCount="6" stopTime="0.00" timeLoss="2765.96" rerouteNo="0" devices="tripinfo_f_0.24" vType="car_0" speedFactor="0.91" vaporized=""/>
    <tripinfo id="f_0.25" depart="2728.00" departLane="E0_0" departPos="7.20" departSpeed="0.00" departDelay="0.73" arrival="6178.00" arrivalLane="E5_0" arrivalPos="300.00" arrivalSpeed="12.40" duration="3450.00" routeLength="10003.87" waitingTime="2552.00" waitingCount="7" stopTime="0.00" timeLoss="2678.65" rerouteNo="0" devices="tripinfo_f_0.25" vType="car_0" speedFactor="0.94" vaporized=""/>
    <tripinfo id="f_0.26" depart="2837.00" departLane="E0_0" departPos="7.20" departSpeed="0.00" departDelay="0.63" arrival="6180.00" arrivalLane="E5_0" arrivalPos="300.00" arrivalSpeed="12.05" duration="3343.00" routeLength="10003.87" waitingTime="2443.00" waitingCount="8" stopTime="0.00" timeLoss="2589.40" rerouteNo="0" devices="tripinfo_f_0.26" vType="car_0" speedFactor="0.96" vaporized=""/>
    <tripinfo id="f_0.27" depart="2946.00" departLane="E0_0" departPos="7.20" departSpeed="0.00" departDelay="0.54" arrival="6182.00" arrivalLane="E5_0" arrivalPos="300.00" arrivalSpeed="12.82" duration="3236.00" routeLength="10003.87" waitingTime="2332.00" waitingCount="8" stopTime="0.00" timeLoss="2495.33" rerouteNo="0" devices="tripinfo_f_0.27" vType="car_0" speedFactor="0.97" vaporized=""/>
    <tripinfo id="f_0.28" depart="3055.00" departLane="E0_0" departPos="7.20" departSpeed="0.00" departDelay="0.45" arrival="6911.00" arrivalLane="E5_0" arrivalPos="300.00" arrivalSpeed="13.79" duration="3856.00" routeLength="10003.87" waitingTime="3008.00" waitingCount="9" stopTime="0.00" timeLoss="3134.02" rerouteNo="0" devices="tripinfo_f_0.28" vType="car_0" speedFactor="1.07" vaporized=""/>
    <tripinfo id="f_0.29" depart="3164.00" departLane="E0_0" departPos="7.20" departSpeed="0.00" departDelay="0.36" arrival="6929.00" arrivalLane="E5_0" arrivalPos="300.00" arrivalSpeed="12.77" duration="3765.00" routeLength="10003.87" waitingTime="2907.00" waitingCount="7" stopTime="0.00" timeLoss="3017.65" rerouteNo="0" devices="tripinfo_f_0.29" vType="car_0" speedFactor="0.97" vaporized=""/>
    <tripinfo id="f_0.30" depart="3273.00" departLane="E0_0" departPos="7.20" departSpeed="0.00" departDelay="0.27" arrival="6931.00" arrivalLane="E5_0" arrivalPos="300.00" arrivalSpeed="12.72" duration="3658.00" routeLength="10003.87" waitingTime="2800.00" waitingCount="8" stopTime="0.00" timeLoss="2936.41" rerouteNo="0" devices="tripinfo_f_0.30" vType="car_0" speedFactor="1.09" vaporized=""/>
    <tripinfo id="f_0.31" depart="3382.00" departLane="E0_0" departPos="7.20" departSpeed="0.00" departDelay="0.18" arrival="6933.00" arrivalLane="E5_0" arrivalPos="300.00" arrivalSpeed="13.24" duration="3551.00" routeLength="10003.87" waitingTime="2683.00" waitingCount="9" stopTime="0.00" timeLoss="2829.68" rerouteNo="0" devices="tripinfo_f_0.31" vType="car_0" speedFactor="1.08" vaporized=""/>
    <tripinfo id="f_0.32" depart="3491.00" departLane="E0_0" departPos="7.20" departSpeed="0.00" departDelay="0.09" arrival="7681.00" arrivalLane="E5_0" arrivalPos="300.00" arrivalSpeed="12.90" duration="4190.00" routeLength="10003.87" waitingTime="3326.00" waitingCount="7" stopTime="0.00" timeLoss="3467.75" rerouteNo="0" devices="tripinfo_f_0.32" vType="car_0" speedFactor="1.00" vaporized=""/>
</tripinfos>
