<?xml version="1.0" encoding="UTF-8"?>

<!-- generated on 2025-01-09 14:00:46 by Eclipse SUMO sumo Version v1_20_0+0085-e155ab8699b
<configuration xmlns:xsi="http://www.w3.org/2001/XMLSchema-instance" xsi:noNamespaceSchemaLocation="http://sumo.dlr.de/xsd/sumoConfiguration.xsd">

    <input>
        <net-file value="/home/jian/sumo/project/rayRL/one_way_xml/one_way.net.xml"/>
        <route-files value="/home/jian/sumo/project/rayRL/one_way_xml/one_way.rou.xml"/>
    </input>

    <output>
        <output-prefix value="36-"/>
        <tripinfo-output value="/home/jian/sumo/project/rayRL/one_way_xml/data/default/tripinfo/tripinfo-output.xml"/>
    </output>

    <time>
        <step-length value="1.0"/>
    </time>

    <processing>
        <step-method.ballistic value="True"/>
    </processing>

    <report>
        <no-warnings value="True"/>
        <no-step-log value="True"/>
    </report>

    <traci_server>
        <remote-port value="44823"/>
    </traci_server>

    <gui_only>
        <quit-on-end value="True"/>
        <start value="True"/>
    </gui_only>

</configuration>
-->

<tripinfos xmlns:xsi="http://www.w3.org/2001/XMLSchema-instance" xsi:noNamespaceSchemaLocation="http://sumo.dlr.de/xsd/tripinfo_file.xsd">
    <tripinfo id="f_0.0" depart="0.00" departLane="E0_0" departPos="7.20" departSpeed="0.00" departDelay="0.00" arrival="1520.00" arrivalLane="E5_0" arrivalPos="300.00" arrivalSpeed="13.45" duration="1520.00" routeLength="10003.87" waitingTime="736.00" waitingCount="1" stopTime="0.00" timeLoss="798.19" rerouteNo="0" devices="tripinfo_f_0.0" vType="car_0" speedFactor="1.03" vaporized=""/>
    <tripinfo id="f_0.1" depart="100.00" departLane="E0_0" departPos="7.20" departSpeed="0.00" departDelay="0.00" arrival="2300.00" arrivalLane="E5_0" arrivalPos="300.00" arrivalSpeed="12.88" duration="2200.00" routeLength="10003.87" waitingTime="1371.00" waitingCount="2" stopTime="0.00" timeLoss="1455.08" rerouteNo="0" devices="tripinfo_f_0.1" vType="car_0" speedFactor="0.97" vaporized=""/>
    <tripinfo id="f_0.2" depart="200.00" departLane="E0_0" departPos="7.20" departSpeed="0.00" departDelay="0.00" arrival="2302.00" arrivalLane="E5_0" arrivalPos="300.00" arrivalSpeed="12.92" duration="2102.00" routeLength="10003.87" waitingTime="1273.00" waitingCount="4" stopTime="0.00" timeLoss="1379.28" rerouteNo="0" devices="tripinfo_f_0.2" vType="car_0" speedFactor="1.01" vaporized=""/>
    <tripinfo id="f_0.3" depart="300.00" departLane="E0_0" departPos="7.20" departSpeed="0.00" departDelay="0.00" arrival="2304.00" arrivalLane="E5_0" arrivalPos="300.00" arrivalSpeed="13.22" duration="2004.00" routeLength="10003.87" waitingTime="1175.00" waitingCount="3" stopTime="0.00" timeLoss="1281.90" rerouteNo="0" devices="tripinfo_f_0.3" vType="car_0" speedFactor="1.04" vaporized=""/>
    <tripinfo id="f_0.4" depart="400.00" departLane="E0_0" departPos="7.20" departSpeed="0.00" departDelay="0.00" arrival="2306.00" arrivalLane="E5_0" arrivalPos="300.00" arrivalSpeed="13.66" duration="1906.00" routeLength="10003.87" waitingTime="1091.00" waitingCount="3" stopTime="0.00" timeLoss="1183.48" rerouteNo="0" devices="tripinfo_f_0.4" vType="car_0" speedFactor="1.02" vaporized=""/>
    <tripinfo id="f_0.5" depart="500.00" departLane="E0_0" departPos="7.20" departSpeed="0.00" departDelay="0.00" arrival="3096.00" arrivalLane="E5_0" arrivalPos="300.00" arrivalSpeed="11.57" duration="2596.00" routeLength="10003.87" waitingTime="1705.00" waitingCount="4" stopTime="0.00" timeLoss="1807.14" rerouteNo="0" devices="tripinfo_f_0.5" vType="car_0" speedFactor="0.92" vaporized=""/>
    <tripinfo id="f_0.6" depart="600.00" departLane="E0_0" departPos="7.20" departSpeed="0.00" departDelay="0.00" arrival="3098.00" arrivalLane="E5_0" arrivalPos="300.00" arrivalSpeed="12.91" duration="2498.00" routeLength="10003.87" waitingTime="1607.00" waitingCount="6" stopTime="0.00" timeLoss="1775.51" rerouteNo="0" devices="tripinfo_f_0.6" vType="car_0" speedFactor="1.02" vaporized=""/>
    <tripinfo id="f_0.7" depart="700.00" departLane="E0_0" departPos="7.20" departSpeed="0.00" departDelay="0.00" arrival="3100.00" arrivalLane="E5_0" arrivalPos="300.00" arrivalSpeed="12.10" duration="2400.00" routeLength="10003.87" waitingTime="1506.00" waitingCount="4" stopTime="0.00" timeLoss="1634.41" rerouteNo="0" devices="tripinfo_f_0.7" vType="car_0" speedFactor="0.94" vaporized=""/>
    <tripinfo id="f_0.8" depart="800.00" departLane="E0_0" departPos="7.20" departSpeed="0.00" departDelay="0.00" arrival="3101.00" arrivalLane="E5_0" arrivalPos="300.00" arrivalSpeed="12.51" duration="2301.00" routeLength="10003.87" waitingTime="1423.00" waitingCount="2" stopTime="0.00" timeLoss="1556.07" rerouteNo="0" devices="tripinfo_f_0.8" vType="car_0" speedFactor="0.97" vaporized=""/>
    <tripinfo id="f_0.9" depart="900.00" departLane="E0_0" departPos="7.20" departSpeed="0.00" departDelay="0.00" arrival="3859.00" arrivalLane="E5_0" arrivalPos="300.00" arrivalSpeed="12.39" duration="2959.00" routeLength="10003.87" waitingTime="2084.00" waitingCount="3" stopTime="0.00" timeLoss="2181.01" rerouteNo="0" devices="tripinfo_f_0.9" vType="car_0" speedFactor="0.93" vaporized=""/>
    <tripinfo id="f_0.10" depart="1000.00" departLane="E0_0" departPos="7.20" departSpeed="0.00" departDelay="0.00" arrival="3861.00" arrivalLane="E5_0" arrivalPos="300.00" arrivalSpeed="13.23" duration="2861.00" routeLength="10003.87" waitingTime="1987.00" waitingCount="4" stopTime="0.00" timeLoss="2138.43" rerouteNo="0" devices="tripinfo_f_0.10" vType="car_0" speedFactor="1.05" vaporized=""/>
    <tripinfo id="f_0.11" depart="1100.00" departLane="E0_0" departPos="7.20" departSpeed="0.00" departDelay="0.00" arrival="3863.00" arrivalLane="E5_0" arrivalPos="300.00" arrivalSpeed="13.62" duration="2763.00" routeLength="10003.87" waitingTime="1889.00" waitingCount="5" stopTime="0.00" timeLoss="2040.75" rerouteNo="0" devices="tripinfo_f_0.11" vType="car_0" speedFactor="1.01" vaporized=""/>
    <tripinfo id="f_0.12" depart="1200.00" departLane="E0_0" departPos="7.20" departSpeed="0.00" departDelay="0.00" arrival="3864.00" arrivalLane="E5_0" arrivalPos="300.00" arrivalSpeed="13.50" duration="2664.00" routeLength="10003.87" waitingTime="1785.00" waitingCount="3" stopTime="0.00" timeLoss="1942.06" rerouteNo="0" devices="tripinfo_f_0.12" vType="car_0" speedFactor="1.02" vaporized=""/>
    <tripinfo id="f_0.13" depart="1300.00" departLane="E0_0" departPos="7.20" departSpeed="0.00" departDelay="0.00" arrival="3866.00" arrivalLane="E5_0" arrivalPos="300.00" arrivalSpeed="13.72" duration="2566.00" routeLength="10003.87" waitingTime="1688.00" waitingCount="6" stopTime="0.00" timeLoss="1844.49" rerouteNo="0" devices="tripinfo_f_0.13" vType="car_0" speedFactor="1.06" vaporized=""/>
    <tripinfo id="f_0.14" depart="1400.00" departLane="E0_0" departPos="7.20" departSpeed="0.00" departDelay="0.00" arrival="4606.00" arrivalLane="E5_0" arrivalPos="300.00" arrivalSpeed="13.58" duration="3206.00" routeLength="10003.87" waitingTime="2362.00" waitingCount="5" stopTime="0.00" timeLoss="2481.28" rerouteNo="0" devices="tripinfo_f_0.14" vType="car_0" speedFactor="1.00" vaporized=""/>
    <tripinfo id="f_0.15" depart="1500.00" departLane="E0_0" departPos="7.20" departSpeed="0.00" departDelay="0.00" arrival="4621.00" arrivalLane="E5_0" arrivalPos="300.00" arrivalSpeed="12.45" duration="3121.00" routeLength="10003.87" waitingTime="2255.00" waitingCount="6" stopTime="0.00" timeLoss="2371.69" rerouteNo="0" devices="tripinfo_f_0.15" vType="car_0" speedFactor="0.96" vaporized=""/>
    <tripinfo id="f_0.16" depart="1600.00" departLane="E0_0" departPos="7.20" departSpeed="0.00" departDelay="0.00" arrival="4631.00" arrivalLane="E5_0" arrivalPos="300.00" arrivalSpeed="12.49" duration="3031.00" routeLength="10003.87" waitingTime="2162.00" waitingCount="3" stopTime="0.00" timeLoss="2262.31" rerouteNo="0" devices="tripinfo_f_0.16" vType="car_0" speedFactor="0.94" vaporized=""/>
    <tripinfo id="f_0.17" depart="1700.00" departLane="E0_0" departPos="7.20" departSpeed="0.00" departDelay="0.00" arrival="4633.00" arrivalLane="E5_0" arrivalPos="300.00" arrivalSpeed="12.99" duration="2933.00" routeLength="10003.87" waitingTime="2061.00" waitingCount="4" stopTime="0.00" timeLoss="2189.09" rerouteNo="0" devices="tripinfo_f_0.17" vType="car_0" speedFactor="0.97" vaporized=""/>
    <tripinfo id="f_0.18" depart="1800.00" departLane="E0_0" departPos="7.20" departSpeed="0.00" departDelay="0.00" arrival="5385.00" arrivalLane="E5_0" arrivalPos="300.00" arrivalSpeed="13.07" duration="3585.00" routeLength="10003.87" waitingTime="2733.00" waitingCount="5" stopTime="0.00" timeLoss="2838.95" rerouteNo="0" devices="tripinfo_f_0.18" vType="car_0" speedFactor="0.97" vaporized=""/>
    <tripinfo id="f_0.19" depart="1900.00" departLane="E0_0" departPos="7.20" departSpeed="0.00" departDelay="0.00" arrival="5387.00" arrivalLane="E5_0" arrivalPos="300.00" arrivalSpeed="12.97" duration="3487.00" routeLength="10003.87" waitingTime="2624.00" waitingCount="6" stopTime="0.00" timeLoss="2765.33" rerouteNo="0" devices="tripinfo_f_0.19" vType="car_0" speedFactor="1.08" vaporized=""/>
    <tripinfo id="f_0.20" depart="2000.00" departLane="E0_0" departPos="7.20" departSpeed="0.00" departDelay="0.00" arrival="5389.00" arrivalLane="E5_0" arrivalPos="300.00" arrivalSpeed="12.63" duration="3389.00" routeLength="10003.87" waitingTime="2522.00" waitingCount="7" stopTime="0.00" timeLoss="2666.83" rerouteNo="0" devices="tripinfo_f_0.20" vType="car_0" speedFactor="1.01" vaporized=""/>
    <tripinfo id="f_0.21" depart="2100.00" departLane="E0_0" departPos="7.20" departSpeed="0.00" departDelay="0.00" arrival="5391.00" arrivalLane="E5_0" arrivalPos="300.00" arrivalSpeed="12.59" duration="3291.00" routeLength="10003.87" waitingTime="2426.00" waitingCount="9" stopTime="0.00" timeLoss="2568.71" rerouteNo="0" devices="tripinfo_f_0.21" vType="car_0" speedFactor="1.01" vaporized=""/>
    <tripinfo id="f_0.22" depart="2200.00" departLane="E0_0" departPos="7.20" departSpeed="0.00" departDelay="0.00" arrival="6145.00" arrivalLane="E5_0" arrivalPos="300.00" arrivalSpeed="13.46" duration="3945.00" routeLength="10003.87" waitingTime="3077.00" waitingCount="10" stopTime="0.00" timeLoss="3214.72" rerouteNo="0" devices="tripinfo_f_0.22" vType="car_0" speedFactor="0.99" vaporized=""/>
    <tripinfo id="f_0.23" depart="2300.00" departLane="E0_0" departPos="7.20" departSpeed="0.00" departDelay="0.00" arrival="6164.00" arrivalLane="E5_0" arrivalPos="300.00" arrivalSpeed="11.94" duration="3864.00" routeLength="10003.87" waitingTime="2969.00" waitingCount="7" stopTime="0.00" timeLoss="3099.91" rerouteNo="0" devices="tripinfo_f_0.23" vType="car_0" speedFactor="0.94" vaporized=""/>
    <tripinfo id="f_0.24" depart="2400.00" departLane="E0_0" departPos="7.20" departSpeed="0.00" departDelay="0.00" arrival="6180.00" arrivalLane="E5_0" arrivalPos="300.00" arrivalSpeed="12.24" duration="3780.00" routeLength="10003.87" waitingTime="2876.00" waitingCount="7" stopTime="0.00" timeLoss="2989.48" rerouteNo="0" devices="tripinfo_f_0.24" vType="car_0" speedFactor="0.91" vaporized=""/>
    <tripinfo id="f_0.25" depart="2500.00" departLane="E0_0" departPos="7.20" departSpeed="0.00" departDelay="0.00" arrival="6182.00" arrivalLane="E5_0" arrivalPos="300.00" arrivalSpeed="12.99" duration="3682.00" routeLength="10003.87" waitingTime="2775.00" waitingCount="7" stopTime="0.00" timeLoss="2911.52" rerouteNo="0" devices="tripinfo_f_0.25" vType="car_0" speedFactor="0.94" vaporized=""/>
    <tripinfo id="f_0.26" depart="2600.00" departLane="E0_0" departPos="7.20" departSpeed="0.00" departDelay="0.00" arrival="6184.00" arrivalLane="E5_0" arrivalPos="300.00" arrivalSpeed="12.38" duration="3584.00" routeLength="10003.87" waitingTime="2665.00" waitingCount="8" stopTime="0.00" timeLoss="2831.91" rerouteNo="0" devices="tripinfo_f_0.26" vType="car_0" speedFactor="0.96" vaporized=""/>
    <tripinfo id="f_0.27" depart="2700.00" departLane="E0_0" departPos="7.20" departSpeed="0.00" departDelay="0.00" arrival="6919.00" arrivalLane="E5_0" arrivalPos="300.00" arrivalSpeed="13.26" duration="4219.00" routeLength="10003.87" waitingTime="3322.00" waitingCount="12" stopTime="0.00" timeLoss="3478.73" rerouteNo="0" devices="tripinfo_f_0.27" vType="car_0" speedFactor="0.97" vaporized=""/>
    <tripinfo id="f_0.28" depart="2800.00" departLane="E0_0" departPos="7.20" departSpeed="0.00" departDelay="0.00" arrival="6921.00" arrivalLane="E5_0" arrivalPos="300.00" arrivalSpeed="13.63" duration="4121.00" routeLength="10003.87" waitingTime="3254.00" waitingCount="10" stopTime="0.00" timeLoss="3399.07" rerouteNo="0" devices="tripinfo_f_0.28" vType="car_0" speedFactor="1.07" vaporized=""/>
    <tripinfo id="f_0.29" depart="2900.00" departLane="E0_0" departPos="7.20" departSpeed="0.00" departDelay="0.00" arrival="6928.00" arrivalLane="E5_0" arrivalPos="300.00" arrivalSpeed="13.06" duration="4028.00" routeLength="10003.87" waitingTime="3151.00" waitingCount="7" stopTime="0.00" timeLoss="3280.97" rerouteNo="0" devices="tripinfo_f_0.29" vType="car_0" speedFactor="0.97" vaporized=""/>
    <tripinfo id="f_0.30" depart="3000.00" departLane="E0_0" departPos="7.20" departSpeed="0.00" departDelay="0.00" arrival="6930.00" arrivalLane="E5_0" arrivalPos="300.00" arrivalSpeed="13.25" duration="3930.00" routeLength="10003.87" waitingTime="3055.00" waitingCount="10" stopTime="0.00" timeLoss="3208.62" rerouteNo="0" devices="tripinfo_f_0.30" vType="car_0" speedFactor="1.09" vaporized=""/>
    <tripinfo id="f_0.31" depart="3100.00" departLane="E0_0" departPos="7.20" departSpeed="0.00" departDelay="0.00" arrival="6932.00" arrivalLane="E5_0" arrivalPos="300.00" arrivalSpeed="13.14" duration="3832.00" routeLength="10003.87" waitingTime="2966.00" waitingCount="6" stopTime="0.00" timeLoss="3110.50" rerouteNo="0" devices="tripinfo_f_0.31" vType="car_0" speedFactor="1.08" vaporized=""/>
    <tripinfo id="f_0.32" depart="3200.00" departLane="E0_0" departPos="7.20" departSpeed="0.00" departDelay="0.00" arrival="7679.00" arrivalLane="E5_0" arrivalPos="300.00" arrivalSpeed="12.66" duration="4479.00" routeLength="10003.87" waitingTime="3619.00" waitingCount="8" stopTime="0.00" timeLoss="3757.33" rerouteNo="0" devices="tripinfo_f_0.32" vType="car_0" speedFactor="1.00" vaporized=""/>
    <tripinfo id="f_0.33" depart="3300.00" departLane="E0_0" departPos="7.20" departSpeed="0.00" departDelay="0.00" arrival="7684.00" arrivalLane="E5_0" arrivalPos="300.00" arrivalSpeed="13.61" duration="4384.00" routeLength="10003.87" waitingTime="3525.00" waitingCount="11" stopTime="0.00" timeLoss="3661.68" rerouteNo="0" devices="tripinfo_f_0.33" vType="car_0" speedFactor="1.09" vaporized=""/>
    <tripinfo id="f_0.34" depart="3400.00" departLane="E0_0" departPos="7.20" departSpeed="0.00" departDelay="0.00" arrival="7687.00" arrivalLane="E5_0" arrivalPos="300.00" arrivalSpeed="12.96" duration="4287.00" routeLength="10003.87" waitingTime="3421.00" waitingCount="9" stopTime="0.00" timeLoss="3562.65" rerouteNo="0" devices="tripinfo_f_0.34" vType="car_0" speedFactor="1.00" vaporized=""/>
    <tripinfo id="f_0.35" depart="3500.00" departLane="E0_0" departPos="7.20" departSpeed="0.00" departDelay="0.00" arrival="7689.00" arrivalLane="E5_0" arrivalPos="300.00" arrivalSpeed="13.14" duration="4189.00" routeLength="10003.87" waitingTime="3321.00" waitingCount="9" stopTime="0.00" timeLoss="3467.18" rerouteNo="0" devices="tripinfo_f_0.35" vType="car_0" speedFactor="1.01" vaporized=""/>
</tripinfos>
