<?xml version="1.0" encoding="UTF-8"?>

<!-- generated on 2025-01-09 14:00:51 by Eclipse SUMO sumo Version v1_20_0+0085-e155ab8699b
<configuration xmlns:xsi="http://www.w3.org/2001/XMLSchema-instance" xsi:noNamespaceSchemaLocation="http://sumo.dlr.de/xsd/sumoConfiguration.xsd">

    <input>
        <net-file value="/home/jian/sumo/project/rayRL/one_way_xml/one_way.net.xml"/>
        <route-files value="/home/jian/sumo/project/rayRL/one_way_xml/one_way.rou.xml"/>
    </input>

    <output>
        <output-prefix value="37-"/>
        <tripinfo-output value="/home/jian/sumo/project/rayRL/one_way_xml/data/default/tripinfo/tripinfo-output.xml"/>
    </output>

    <time>
        <step-length value="1.0"/>
    </time>

    <processing>
        <step-method.ballistic value="True"/>
    </processing>

    <report>
        <no-warnings value="True"/>
        <no-step-log value="True"/>
    </report>

    <traci_server>
        <remote-port value="58843"/>
    </traci_server>

    <gui_only>
        <quit-on-end value="True"/>
        <start value="True"/>
    </gui_only>

</configuration>
-->

<tripinfos xmlns:xsi="http://www.w3.org/2001/XMLSchema-instance" xsi:noNamespaceSchemaLocation="http://sumo.dlr.de/xsd/tripinfo_file.xsd">
    <tripinfo id="f_0.0" depart="0.00" departLane="E0_0" departPos="7.20" departSpeed="0.00" departDelay="0.00" arrival="1519.00" arrivalLane="E5_0" arrivalPos="300.00" arrivalSpeed="13.45" duration="1519.00" routeLength="10003.87" waitingTime="736.00" waitingCount="1" stopTime="0.00" timeLoss="796.98" rerouteNo="0" devices="tripinfo_f_0.0" vType="car_0" speedFactor="1.03" vaporized=""/>
    <tripinfo id="f_0.1" depart="98.00" departLane="E0_0" departPos="7.20" departSpeed="0.00" departDelay="0.70" arrival="2302.00" arrivalLane="E5_0" arrivalPos="300.00" arrivalSpeed="13.46" duration="2204.00" routeLength="10003.87" waitingTime="1377.00" waitingCount="2" stopTime="0.00" timeLoss="1459.25" rerouteNo="0" devices="tripinfo_f_0.1" vType="car_0" speedFactor="0.97" vaporized=""/>
    <tripinfo id="f_0.2" depart="195.00" departLane="E0_0" departPos="7.20" departSpeed="0.00" departDelay="0.41" arrival="2304.00" arrivalLane="E5_0" arrivalPos="300.00" arrivalSpeed="13.04" duration="2109.00" routeLength="10003.87" waitingTime="1282.00" waitingCount="2" stopTime="0.00" timeLoss="1387.16" rerouteNo="0" devices="tripinfo_f_0.2" vType="car_0" speedFactor="1.01" vaporized=""/>
    <tripinfo id="f_0.3" depart="292.00" departLane="E0_0" departPos="7.20" departSpeed="0.00" departDelay="0.11" arrival="2306.00" arrivalLane="E5_0" arrivalPos="300.00" arrivalSpeed="13.66" duration="2014.00" routeLength="10003.87" waitingTime="1178.00" waitingCount="2" stopTime="0.00" timeLoss="1291.63" rerouteNo="0" devices="tripinfo_f_0.3" vType="car_0" speedFactor="1.04" vaporized=""/>
    <tripinfo id="f_0.4" depart="390.00" departLane="E0_0" departPos="7.20" departSpeed="0.00" departDelay="0.81" arrival="2308.00" arrivalLane="E5_0" arrivalPos="300.00" arrivalSpeed="13.39" duration="1918.00" routeLength="10003.87" waitingTime="1100.00" waitingCount="3" stopTime="0.00" timeLoss="1195.65" rerouteNo="0" devices="tripinfo_f_0.4" vType="car_0" speedFactor="1.02" vaporized=""/>
    <tripinfo id="f_0.5" depart="487.00" departLane="E0_0" departPos="7.20" departSpeed="0.00" departDelay="0.52" arrival="3096.00" arrivalLane="E5_0" arrivalPos="300.00" arrivalSpeed="11.83" duration="2609.00" routeLength="10003.87" waitingTime="1717.00" waitingCount="3" stopTime="0.00" timeLoss="1820.26" rerouteNo="0" devices="tripinfo_f_0.5" vType="car_0" speedFactor="0.92" vaporized=""/>
    <tripinfo id="f_0.6" depart="584.00" departLane="E0_0" departPos="7.20" departSpeed="0.00" departDelay="0.22" arrival="3098.00" arrivalLane="E5_0" arrivalPos="300.00" arrivalSpeed="13.41" duration="2514.00" routeLength="10003.87" waitingTime="1622.00" waitingCount="5" stopTime="0.00" timeLoss="1792.02" rerouteNo="0" devices="tripinfo_f_0.6" vType="car_0" speedFactor="1.02" vaporized=""/>
    <tripinfo id="f_0.7" depart="682.00" departLane="E0_0" departPos="7.20" departSpeed="0.00" departDelay="0.92" arrival="3100.00" arrivalLane="E5_0" arrivalPos="300.00" arrivalSpeed="12.98" duration="2418.00" routeLength="10003.87" waitingTime="1525.00" waitingCount="4" stopTime="0.00" timeLoss="1652.32" rerouteNo="0" devices="tripinfo_f_0.7" vType="car_0" speedFactor="0.94" vaporized=""/>
    <tripinfo id="f_0.8" depart="779.00" departLane="E0_0" departPos="7.20" departSpeed="0.00" departDelay="0.62" arrival="3102.00" arrivalLane="E5_0" arrivalPos="300.00" arrivalSpeed="12.84" duration="2323.00" routeLength="10003.87" waitingTime="1442.00" waitingCount="2" stopTime="0.00" timeLoss="1577.19" rerouteNo="0" devices="tripinfo_f_0.8" vType="car_0" speedFactor="0.97" vaporized=""/>
    <tripinfo id="f_0.9" depart="876.00" departLane="E0_0" departPos="7.20" departSpeed="0.00" departDelay="0.33" arrival="3858.00" arrivalLane="E5_0" arrivalPos="300.00" arrivalSpeed="12.16" duration="2982.00" routeLength="10003.87" waitingTime="2113.00" waitingCount="4" stopTime="0.00" timeLoss="2204.52" rerouteNo="0" devices="tripinfo_f_0.9" vType="car_0" speedFactor="0.93" vaporized=""/>
    <tripinfo id="f_0.10" depart="973.00" departLane="E0_0" departPos="7.20" departSpeed="0.00" departDelay="0.03" arrival="3860.00" arrivalLane="E5_0" arrivalPos="300.00" arrivalSpeed="13.19" duration="2887.00" routeLength="10003.87" waitingTime="2017.00" waitingCount="4" stopTime="0.00" timeLoss="2164.62" rerouteNo="0" devices="tripinfo_f_0.10" vType="car_0" speedFactor="1.05" vaporized=""/>
    <tripinfo id="f_0.11" depart="1071.00" departLane="E0_0" departPos="7.20" departSpeed="0.00" departDelay="0.73" arrival="3862.00" arrivalLane="E5_0" arrivalPos="300.00" arrivalSpeed="13.07" duration="2791.00" routeLength="10003.87" waitingTime="1914.00" waitingCount="3" stopTime="0.00" timeLoss="2068.38" rerouteNo="0" devices="tripinfo_f_0.11" vType="car_0" speedFactor="1.01" vaporized=""/>
    <tripinfo id="f_0.12" depart="1168.00" departLane="E0_0" departPos="7.20" departSpeed="0.00" departDelay="0.44" arrival="3864.00" arrivalLane="E5_0" arrivalPos="300.00" arrivalSpeed="12.86" duration="2696.00" routeLength="10003.87" waitingTime="1823.00" waitingCount="5" stopTime="0.00" timeLoss="1974.00" rerouteNo="0" devices="tripinfo_f_0.12" vType="car_0" speedFactor="1.02" vaporized=""/>
    <tripinfo id="f_0.13" depart="1265.00" departLane="E0_0" departPos="7.20" departSpeed="0.00" departDelay="0.14" arrival="3866.00" arrivalLane="E5_0" arrivalPos="300.00" arrivalSpeed="13.49" duration="2601.00" routeLength="10003.87" waitingTime="1718.00" waitingCount="3" stopTime="0.00" timeLoss="1878.27" rerouteNo="0" devices="tripinfo_f_0.13" vType="car_0" speedFactor="1.06" vaporized=""/>
    <tripinfo id="f_0.14" depart="1363.00" departLane="E0_0" departPos="7.20" departSpeed="0.00" departDelay="0.84" arrival="4606.00" arrivalLane="E5_0" arrivalPos="300.00" arrivalSpeed="12.98" duration="3243.00" routeLength="10003.87" waitingTime="2399.00" waitingCount="4" stopTime="0.00" timeLoss="2518.12" rerouteNo="0" devices="tripinfo_f_0.14" vType="car_0" speedFactor="1.00" vaporized=""/>
    <tripinfo id="f_0.15" depart="1460.00" departLane="E0_0" departPos="7.20" departSpeed="0.00" departDelay="0.55" arrival="4622.00" arrivalLane="E5_0" arrivalPos="300.00" arrivalSpeed="13.28" duration="3162.00" routeLength="10003.87" waitingTime="2302.00" waitingCount="6" stopTime="0.00" timeLoss="2413.48" rerouteNo="0" devices="tripinfo_f_0.15" vType="car_0" speedFactor="0.96" vaporized=""/>
    <tripinfo id="f_0.16" depart="1557.00" departLane="E0_0" departPos="7.20" departSpeed="0.00" departDelay="0.25" arrival="4635.00" arrivalLane="E5_0" arrivalPos="300.00" arrivalSpeed="12.72" duration="3078.00" routeLength="10003.87" waitingTime="2209.00" waitingCount="5" stopTime="0.00" timeLoss="2309.93" rerouteNo="0" devices="tripinfo_f_0.16" vType="car_0" speedFactor="0.94" vaporized=""/>
    <tripinfo id="f_0.17" depart="1655.00" departLane="E0_0" departPos="7.20" departSpeed="0.00" departDelay="0.95" arrival="4637.00" arrivalLane="E5_0" arrivalPos="300.00" arrivalSpeed="12.74" duration="2982.00" routeLength="10003.87" waitingTime="2110.00" waitingCount="4" stopTime="0.00" timeLoss="2238.13" rerouteNo="0" devices="tripinfo_f_0.17" vType="car_0" speedFactor="0.97" vaporized=""/>
    <tripinfo id="f_0.18" depart="1752.00" departLane="E0_0" departPos="7.20" departSpeed="0.00" departDelay="0.65" arrival="5382.00" arrivalLane="E5_0" arrivalPos="300.00" arrivalSpeed="12.20" duration="3630.00" routeLength="10003.87" waitingTime="2764.00" waitingCount="7" stopTime="0.00" timeLoss="2884.67" rerouteNo="0" devices="tripinfo_f_0.18" vType="car_0" speedFactor="0.97" vaporized=""/>
    <tripinfo id="f_0.19" depart="1849.00" departLane="E0_0" departPos="7.20" departSpeed="0.00" departDelay="0.36" arrival="5384.00" arrivalLane="E5_0" arrivalPos="300.00" arrivalSpeed="13.14" duration="3535.00" routeLength="10003.87" waitingTime="2686.00" waitingCount="4" stopTime="0.00" timeLoss="2812.95" rerouteNo="0" devices="tripinfo_f_0.19" vType="car_0" speedFactor="1.08" vaporized=""/>
    <tripinfo id="f_0.20" depart="1946.00" departLane="E0_0" departPos="7.20" departSpeed="0.00" departDelay="0.06" arrival="5386.00" arrivalLane="E5_0" arrivalPos="300.00" arrivalSpeed="12.89" duration="3440.00" routeLength="10003.87" waitingTime="2592.00" waitingCount="5" stopTime="0.00" timeLoss="2718.22" rerouteNo="0" devices="tripinfo_f_0.20" vType="car_0" speedFactor="1.01" vaporized=""/>
    <tripinfo id="f_0.21" depart="2044.00" departLane="E0_0" departPos="7.20" departSpeed="0.00" departDelay="0.76" arrival="5388.00" arrivalLane="E5_0" arrivalPos="300.00" arrivalSpeed="13.41" duration="3344.00" routeLength="10003.87" waitingTime="2493.00" waitingCount="10" stopTime="0.00" timeLoss="2622.44" rerouteNo="0" devices="tripinfo_f_0.21" vType="car_0" speedFactor="1.01" vaporized=""/>
    <tripinfo id="f_0.22" depart="2141.00" departLane="E0_0" departPos="7.20" departSpeed="0.00" departDelay="0.47" arrival="5390.00" arrivalLane="E5_0" arrivalPos="300.00" arrivalSpeed="12.91" duration="3249.00" routeLength="10003.87" waitingTime="2393.00" waitingCount="8" stopTime="0.00" timeLoss="2517.84" rerouteNo="0" devices="tripinfo_f_0.22" vType="car_0" speedFactor="0.99" vaporized=""/>
    <tripinfo id="f_0.23" depart="2238.00" departLane="E0_0" departPos="7.20" departSpeed="0.00" departDelay="0.17" arrival="6163.00" arrivalLane="E5_0" arrivalPos="300.00" arrivalSpeed="13.03" duration="3925.00" routeLength="10003.87" waitingTime="3044.00" waitingCount="11" stopTime="0.00" timeLoss="3161.27" rerouteNo="0" devices="tripinfo_f_0.23" vType="car_0" speedFactor="0.94" vaporized=""/>
    <tripinfo id="f_0.24" depart="2336.00" departLane="E0_0" departPos="7.20" departSpeed="0.00" departDelay="0.87" arrival="6179.00" arrivalLane="E5_0" arrivalPos="300.00" arrivalSpeed="12.05" duration="3843.00" routeLength="10003.87" waitingTime="2938.00" waitingCount="8" stopTime="0.00" timeLoss="3052.42" rerouteNo="0" devices="tripinfo_f_0.24" vType="car_0" speedFactor="0.91" vaporized=""/>
    <tripinfo id="f_0.25" depart="2433.00" departLane="E0_0" departPos="7.20" departSpeed="0.00" departDelay="0.58" arrival="6181.00" arrivalLane="E5_0" arrivalPos="300.00" arrivalSpeed="12.58" duration="3748.00" routeLength="10003.87" waitingTime="2842.00" waitingCount="7" stopTime="0.00" timeLoss="2976.65" rerouteNo="0" devices="tripinfo_f_0.25" vType="car_0" speedFactor="0.94" vaporized=""/>
    <tripinfo id="f_0.26" depart="2530.00" departLane="E0_0" departPos="7.20" departSpeed="0.00" departDelay="0.28" arrival="6183.00" arrivalLane="E5_0" arrivalPos="300.00" arrivalSpeed="12.18" duration="3653.00" routeLength="10003.87" waitingTime="2750.00" waitingCount="8" stopTime="0.00" timeLoss="2899.64" rerouteNo="0" devices="tripinfo_f_0.26" vType="car_0" speedFactor="0.96" vaporized=""/>
    <tripinfo id="f_0.27" depart="2628.00" departLane="E0_0" departPos="7.20" departSpeed="0.00" departDelay="0.98" arrival="6185.00" arrivalLane="E5_0" arrivalPos="300.00" arrivalSpeed="13.47" duration="3557.00" routeLength="10003.87" waitingTime="2648.00" waitingCount="9" stopTime="0.00" timeLoss="2816.39" rerouteNo="0" devices="tripinfo_f_0.27" vType="car_0" speedFactor="0.97" vaporized=""/>
    <tripinfo id="f_0.28" depart="2725.00" departLane="E0_0" departPos="7.20" departSpeed="0.00" departDelay="0.68" arrival="6911.00" arrivalLane="E5_0" arrivalPos="300.00" arrivalSpeed="12.86" duration="4186.00" routeLength="10003.87" waitingTime="3336.00" waitingCount="9" stopTime="0.00" timeLoss="3463.48" rerouteNo="0" devices="tripinfo_f_0.28" vType="car_0" speedFactor="1.07" vaporized=""/>
    <tripinfo id="f_0.29" depart="2822.00" departLane="E0_0" departPos="7.20" departSpeed="0.00" departDelay="0.39" arrival="6925.00" arrivalLane="E5_0" arrivalPos="300.00" arrivalSpeed="12.21" duration="4103.00" routeLength="10003.87" waitingTime="3233.00" waitingCount="6" stopTime="0.00" timeLoss="3355.51" rerouteNo="0" devices="tripinfo_f_0.29" vType="car_0" speedFactor="0.97" vaporized=""/>
    <tripinfo id="f_0.30" depart="2919.00" departLane="E0_0" departPos="7.20" departSpeed="0.00" departDelay="0.09" arrival="6927.00" arrivalLane="E5_0" arrivalPos="300.00" arrivalSpeed="13.76" duration="4008.00" routeLength="10003.87" waitingTime="3142.00" waitingCount="12" stopTime="0.00" timeLoss="3286.74" rerouteNo="0" devices="tripinfo_f_0.30" vType="car_0" speedFactor="1.09" vaporized=""/>
    <tripinfo id="f_0.31" depart="3017.00" departLane="E0_0" departPos="7.20" departSpeed="0.00" departDelay="0.79" arrival="6929.00" arrivalLane="E5_0" arrivalPos="300.00" arrivalSpeed="13.31" duration="3912.00" routeLength="10003.87" waitingTime="3039.00" waitingCount="14" stopTime="0.00" timeLoss="3190.81" rerouteNo="0" devices="tripinfo_f_0.31" vType="car_0" speedFactor="1.08" vaporized=""/>
    <tripinfo id="f_0.32" depart="3114.00" departLane="E0_0" departPos="7.20" departSpeed="0.00" departDelay="0.50" arrival="6931.00" arrivalLane="E5_0" arrivalPos="300.00" arrivalSpeed="12.90" duration="3817.00" routeLength="10003.87" waitingTime="2957.00" waitingCount="8" stopTime="0.00" timeLoss="3095.46" rerouteNo="0" devices="tripinfo_f_0.32" vType="car_0" speedFactor="1.00" vaporized=""/>
    <tripinfo id="f_0.33" depart="3211.00" departLane="E0_0" departPos="7.20" departSpeed="0.00" departDelay="0.20" arrival="7679.00" arrivalLane="E5_0" arrivalPos="300.00" arrivalSpeed="13.47" duration="4468.00" routeLength="10003.87" waitingTime="3624.00" waitingCount="7" stopTime="0.00" timeLoss="3745.45" rerouteNo="0" devices="tripinfo_f_0.33" vType="car_0" speedFactor="1.09" vaporized=""/>
    <tripinfo id="f_0.34" depart="3309.00" departLane="E0_0" departPos="7.20" departSpeed="0.00" departDelay="0.90" arrival="7682.00" arrivalLane="E5_0" arrivalPos="300.00" arrivalSpeed="13.26" duration="4373.00" routeLength="10003.87" waitingTime="3528.00" waitingCount="8" stopTime="0.00" timeLoss="3649.89" rerouteNo="0" devices="tripinfo_f_0.34" vType="car_0" speedFactor="1.00" vaporized=""/>
    <tripinfo id="f_0.35" depart="3406.00" departLane="E0_0" departPos="7.20" departSpeed="0.00" departDelay="0.61" arrival="7687.00" arrivalLane="E5_0" arrivalPos="300.00" arrivalSpeed="13.77" duration="4281.00" routeLength="10003.87" waitingTime="3433.00" waitingCount="8" stopTime="0.00" timeLoss="3558.57" rerouteNo="0" devices="tripinfo_f_0.35" vType="car_0" speedFactor="1.01" vaporized=""/>
    <tripinfo id="f_0.36" depart="3503.00" departLane="E0_0" departPos="7.20" departSpeed="0.00" departDelay="0.31" arrival="7693.00" arrivalLane="E5_0" arrivalPos="300.00" arrivalSpeed="12.76" duration="4190.00" routeLength="10003.87" waitingTime="3335.00" waitingCount="8" stopTime="0.00" timeLoss="3458.36" rerouteNo="0" devices="tripinfo_f_0.36" vType="car_0" speedFactor="0.99" vaporized=""/>
    <tripinfo id="f_0.37" depart="3600.00" departLane="E0_0" departPos="7.20" departSpeed="0.00" departDelay="0.01" arrival="7695.00" arrivalLane="E5_0" arrivalPos="300.00" arrivalSpeed="13.38" duration="4095.00" routeLength="10003.87" waitingTime="3231.00" waitingCount="9" stopTime="0.00" timeLoss="3372.65" rerouteNo="0" devices="tripinfo_f_0.37" vType="car_0" speedFactor="1.09" vaporized=""/>
</tripinfos>
