<?xml version="1.0" encoding="UTF-8"?>

<!-- generated on 2025-01-09 14:00:55 by Eclipse SUMO sumo Version v1_20_0+0085-e155ab8699b
<configuration xmlns:xsi="http://www.w3.org/2001/XMLSchema-instance" xsi:noNamespaceSchemaLocation="http://sumo.dlr.de/xsd/sumoConfiguration.xsd">

    <input>
        <net-file value="/home/jian/sumo/project/rayRL/one_way_xml/one_way.net.xml"/>
        <route-files value="/home/jian/sumo/project/rayRL/one_way_xml/one_way.rou.xml"/>
    </input>

    <output>
        <output-prefix value="38-"/>
        <tripinfo-output value="/home/jian/sumo/project/rayRL/one_way_xml/data/default/tripinfo/tripinfo-output.xml"/>
    </output>

    <time>
        <step-length value="1.0"/>
    </time>

    <processing>
        <step-method.ballistic value="True"/>
    </processing>

    <report>
        <no-warnings value="True"/>
        <no-step-log value="True"/>
    </report>

    <traci_server>
        <remote-port value="39231"/>
    </traci_server>

    <gui_only>
        <quit-on-end value="True"/>
        <start value="True"/>
    </gui_only>

</configuration>
-->

<tripinfos xmlns:xsi="http://www.w3.org/2001/XMLSchema-instance" xsi:noNamespaceSchemaLocation="http://sumo.dlr.de/xsd/tripinfo_file.xsd">
    <tripinfo id="f_0.0" depart="0.00" departLane="E0_0" departPos="7.20" departSpeed="0.00" departDelay="0.00" arrival="1520.00" arrivalLane="E5_0" arrivalPos="300.00" arrivalSpeed="13.45" duration="1520.00" routeLength="10003.87" waitingTime="736.00" waitingCount="1" stopTime="0.00" timeLoss="797.95" rerouteNo="0" devices="tripinfo_f_0.0" vType="car_0" speedFactor="1.03" vaporized=""/>
    <tripinfo id="f_0.1" depart="95.00" departLane="E0_0" departPos="7.20" departSpeed="0.00" departDelay="0.26" arrival="2301.00" arrivalLane="E5_0" arrivalPos="300.00" arrivalSpeed="13.46" duration="2206.00" routeLength="10003.87" waitingTime="1380.00" waitingCount="2" stopTime="0.00" timeLoss="1461.83" rerouteNo="0" devices="tripinfo_f_0.1" vType="car_0" speedFactor="0.97" vaporized=""/>
    <tripinfo id="f_0.2" depart="190.00" departLane="E0_0" departPos="7.20" departSpeed="0.00" departDelay="0.53" arrival="2303.00" arrivalLane="E5_0" arrivalPos="300.00" arrivalSpeed="13.04" duration="2113.00" routeLength="10003.87" waitingTime="1286.00" waitingCount="3" stopTime="0.00" timeLoss="1391.74" rerouteNo="0" devices="tripinfo_f_0.2" vType="car_0" speedFactor="1.01" vaporized=""/>
    <tripinfo id="f_0.3" depart="285.00" departLane="E0_0" departPos="7.20" departSpeed="0.00" departDelay="0.79" arrival="2305.00" arrivalLane="E5_0" arrivalPos="300.00" arrivalSpeed="13.66" duration="2020.00" routeLength="10003.87" waitingTime="1191.00" waitingCount="3" stopTime="0.00" timeLoss="1298.17" rerouteNo="0" devices="tripinfo_f_0.3" vType="car_0" speedFactor="1.04" vaporized=""/>
    <tripinfo id="f_0.4" depart="379.00" departLane="E0_0" departPos="7.20" departSpeed="0.00" departDelay="0.05" arrival="2307.00" arrivalLane="E5_0" arrivalPos="300.00" arrivalSpeed="13.39" duration="1928.00" routeLength="10003.87" waitingTime="1114.00" waitingCount="2" stopTime="0.00" timeLoss="1206.13" rerouteNo="0" devices="tripinfo_f_0.4" vType="car_0" speedFactor="1.02" vaporized=""/>
    <tripinfo id="f_0.5" depart="474.00" departLane="E0_0" departPos="7.20" departSpeed="0.00" departDelay="0.32" arrival="3097.00" arrivalLane="E5_0" arrivalPos="300.00" arrivalSpeed="12.07" duration="2623.00" routeLength="10003.87" waitingTime="1732.00" waitingCount="4" stopTime="0.00" timeLoss="1834.86" rerouteNo="0" devices="tripinfo_f_0.5" vType="car_0" speedFactor="0.92" vaporized=""/>
    <tripinfo id="f_0.6" depart="569.00" departLane="E0_0" departPos="7.20" departSpeed="0.00" departDelay="0.58" arrival="3099.00" arrivalLane="E5_0" arrivalPos="300.00" arrivalSpeed="12.94" duration="2530.00" routeLength="10003.87" waitingTime="1640.00" waitingCount="4" stopTime="0.00" timeLoss="1808.04" rerouteNo="0" devices="tripinfo_f_0.6" vType="car_0" speedFactor="1.02" vaporized=""/>
    <tripinfo id="f_0.7" depart="664.00" departLane="E0_0" departPos="7.20" departSpeed="0.00" departDelay="0.84" arrival="3101.00" arrivalLane="E5_0" arrivalPos="300.00" arrivalSpeed="12.53" duration="2437.00" routeLength="10003.87" waitingTime="1542.00" waitingCount="6" stopTime="0.00" timeLoss="1671.57" rerouteNo="0" devices="tripinfo_f_0.7" vType="car_0" speedFactor="0.94" vaporized=""/>
    <tripinfo id="f_0.8" depart="758.00" departLane="E0_0" departPos="7.20" departSpeed="0.00" departDelay="0.10" arrival="3841.00" arrivalLane="E5_0" arrivalPos="300.00" arrivalSpeed="13.29" duration="3083.00" routeLength="10003.87" waitingTime="2243.00" waitingCount="4" stopTime="0.00" timeLoss="2338.27" rerouteNo="0" devices="tripinfo_f_0.8" vType="car_0" speedFactor="0.97" vaporized=""/>
    <tripinfo id="f_0.9" depart="853.00" departLane="E0_0" departPos="7.20" departSpeed="0.00" departDelay="0.37" arrival="3863.00" arrivalLane="E5_0" arrivalPos="300.00" arrivalSpeed="12.21" duration="3010.00" routeLength="10003.87" waitingTime="2142.00" waitingCount="3" stopTime="0.00" timeLoss="2232.64" rerouteNo="0" devices="tripinfo_f_0.9" vType="car_0" speedFactor="0.93" vaporized=""/>
    <tripinfo id="f_0.10" depart="948.00" departLane="E0_0" departPos="7.20" departSpeed="0.00" departDelay="0.63" arrival="3865.00" arrivalLane="E5_0" arrivalPos="300.00" arrivalSpeed="12.92" duration="2917.00" routeLength="10003.87" waitingTime="2046.00" waitingCount="3" stopTime="0.00" timeLoss="2194.91" rerouteNo="0" devices="tripinfo_f_0.10" vType="car_0" speedFactor="1.05" vaporized=""/>
    <tripinfo id="f_0.11" depart="1043.00" departLane="E0_0" departPos="7.20" departSpeed="0.00" departDelay="0.89" arrival="3867.00" arrivalLane="E5_0" arrivalPos="300.00" arrivalSpeed="13.48" duration="2824.00" routeLength="10003.87" waitingTime="1953.00" waitingCount="3" stopTime="0.00" timeLoss="2101.64" rerouteNo="0" devices="tripinfo_f_0.11" vType="car_0" speedFactor="1.01" vaporized=""/>
    <tripinfo id="f_0.12" depart="1137.00" departLane="E0_0" departPos="7.20" departSpeed="0.00" departDelay="0.16" arrival="3869.00" arrivalLane="E5_0" arrivalPos="300.00" arrivalSpeed="13.45" duration="2732.00" routeLength="10003.87" waitingTime="1884.00" waitingCount="6" stopTime="0.00" timeLoss="2009.92" rerouteNo="0" devices="tripinfo_f_0.12" vType="car_0" speedFactor="1.02" vaporized=""/>
    <tripinfo id="f_0.13" depart="1232.00" departLane="E0_0" departPos="7.20" departSpeed="0.00" departDelay="0.42" arrival="4600.00" arrivalLane="E5_0" arrivalPos="300.00" arrivalSpeed="12.59" duration="3368.00" routeLength="10003.87" waitingTime="2535.00" waitingCount="4" stopTime="0.00" timeLoss="2645.41" rerouteNo="0" devices="tripinfo_f_0.13" vType="car_0" speedFactor="1.06" vaporized=""/>
    <tripinfo id="f_0.14" depart="1327.00" departLane="E0_0" departPos="7.20" departSpeed="0.00" departDelay="0.68" arrival="4604.00" arrivalLane="E5_0" arrivalPos="300.00" arrivalSpeed="12.87" duration="3277.00" routeLength="10003.87" waitingTime="2438.00" waitingCount="6" stopTime="0.00" timeLoss="2552.11" rerouteNo="0" devices="tripinfo_f_0.14" vType="car_0" speedFactor="1.00" vaporized=""/>
    <tripinfo id="f_0.15" depart="1422.00" departLane="E0_0" departPos="7.20" departSpeed="0.00" departDelay="0.95" arrival="4622.00" arrivalLane="E5_0" arrivalPos="300.00" arrivalSpeed="12.67" duration="3200.00" routeLength="10003.87" waitingTime="2335.00" waitingCount="6" stopTime="0.00" timeLoss="2451.10" rerouteNo="0" devices="tripinfo_f_0.15" vType="car_0" speedFactor="0.96" vaporized=""/>
    <tripinfo id="f_0.16" depart="1516.00" departLane="E0_0" departPos="7.20" departSpeed="0.00" departDelay="0.21" arrival="5396.00" arrivalLane="E5_0" arrivalPos="300.00" arrivalSpeed="12.38" duration="3880.00" routeLength="10003.87" waitingTime="2988.00" waitingCount="11" stopTime="0.00" timeLoss="3111.94" rerouteNo="0" devices="tripinfo_f_0.16" vType="car_0" speedFactor="0.94" vaporized=""/>
    <tripinfo id="f_0.17" depart="1611.00" departLane="E0_0" departPos="7.20" departSpeed="0.00" departDelay="0.47" arrival="5398.00" arrivalLane="E5_0" arrivalPos="300.00" arrivalSpeed="12.77" duration="3787.00" routeLength="10003.87" waitingTime="2903.00" waitingCount="6" stopTime="0.00" timeLoss="3043.37" rerouteNo="0" devices="tripinfo_f_0.17" vType="car_0" speedFactor="0.97" vaporized=""/>
    <tripinfo id="f_0.18" depart="1706.00" departLane="E0_0" departPos="7.20" departSpeed="0.00" departDelay="0.73" arrival="5400.00" arrivalLane="E5_0" arrivalPos="300.00" arrivalSpeed="12.60" duration="3694.00" routeLength="10003.87" waitingTime="2804.00" waitingCount="7" stopTime="0.00" timeLoss="2948.44" rerouteNo="0" devices="tripinfo_f_0.18" vType="car_0" speedFactor="0.97" vaporized=""/>
    <tripinfo id="f_0.19" depart="1801.00" departLane="E0_0" departPos="7.20" departSpeed="0.00" departDelay="1.00" arrival="5402.00" arrivalLane="E5_0" arrivalPos="300.00" arrivalSpeed="12.47" duration="3601.00" routeLength="10003.87" waitingTime="2714.00" waitingCount="9" stopTime="0.00" timeLoss="2879.79" rerouteNo="0" devices="tripinfo_f_0.19" vType="car_0" speedFactor="1.08" vaporized=""/>
    <tripinfo id="f_0.20" depart="1895.00" departLane="E0_0" departPos="7.20" departSpeed="0.00" departDelay="0.26" arrival="6141.00" arrivalLane="E5_0" arrivalPos="300.00" arrivalSpeed="12.77" duration="4246.00" routeLength="10003.87" waitingTime="3367.00" waitingCount="10" stopTime="0.00" timeLoss="3523.92" rerouteNo="0" devices="tripinfo_f_0.20" vType="car_0" speedFactor="1.01" vaporized=""/>
    <tripinfo id="f_0.21" depart="1990.00" departLane="E0_0" departPos="7.20" departSpeed="0.00" departDelay="0.52" arrival="6144.00" arrivalLane="E5_0" arrivalPos="300.00" arrivalSpeed="12.85" duration="4154.00" routeLength="10003.87" waitingTime="3298.00" waitingCount="8" stopTime="0.00" timeLoss="3432.84" rerouteNo="0" devices="tripinfo_f_0.21" vType="car_0" speedFactor="1.01" vaporized=""/>
    <tripinfo id="f_0.22" depart="2085.00" departLane="E0_0" departPos="7.20" departSpeed="0.00" departDelay="0.79" arrival="6152.00" arrivalLane="E5_0" arrivalPos="300.00" arrivalSpeed="13.68" duration="4067.00" routeLength="10003.87" waitingTime="3206.00" waitingCount="8" stopTime="0.00" timeLoss="3336.19" rerouteNo="0" devices="tripinfo_f_0.22" vType="car_0" speedFactor="0.99" vaporized=""/>
    <tripinfo id="f_0.23" depart="2179.00" departLane="E0_0" departPos="7.20" departSpeed="0.00" departDelay="0.05" arrival="6170.00" arrivalLane="E5_0" arrivalPos="300.00" arrivalSpeed="12.33" duration="3991.00" routeLength="10003.87" waitingTime="3096.00" waitingCount="9" stopTime="0.00" timeLoss="3226.92" rerouteNo="0" devices="tripinfo_f_0.23" vType="car_0" speedFactor="0.94" vaporized=""/>
    <tripinfo id="f_0.24" depart="2274.00" departLane="E0_0" departPos="7.20" departSpeed="0.00" departDelay="0.31" arrival="6187.00" arrivalLane="E5_0" arrivalPos="300.00" arrivalSpeed="11.49" duration="3913.00" routeLength="10003.87" waitingTime="2988.00" waitingCount="11" stopTime="0.00" timeLoss="3122.21" rerouteNo="0" devices="tripinfo_f_0.24" vType="car_0" speedFactor="0.91" vaporized=""/>
    <tripinfo id="f_0.25" depart="2369.00" departLane="E0_0" departPos="7.20" departSpeed="0.00" departDelay="0.58" arrival="6936.00" arrivalLane="E5_0" arrivalPos="300.00" arrivalSpeed="11.74" duration="4567.00" routeLength="10003.87" waitingTime="3661.00" waitingCount="9" stopTime="0.00" timeLoss="3795.48" rerouteNo="0" devices="tripinfo_f_0.25" vType="car_0" speedFactor="0.94" vaporized=""/>
    <tripinfo id="f_0.26" depart="2464.00" departLane="E0_0" departPos="7.20" departSpeed="0.00" departDelay="0.84" arrival="6938.00" arrivalLane="E5_0" arrivalPos="300.00" arrivalSpeed="13.07" duration="4474.00" routeLength="10003.87" waitingTime="3589.00" waitingCount="6" stopTime="0.00" timeLoss="3720.43" rerouteNo="0" devices="tripinfo_f_0.26" vType="car_0" speedFactor="0.96" vaporized=""/>
    <tripinfo id="f_0.27" depart="2558.00" departLane="E0_0" departPos="7.20" departSpeed="0.00" departDelay="0.10" arrival="6940.00" arrivalLane="E5_0" arrivalPos="300.00" arrivalSpeed="13.32" duration="4382.00" routeLength="10003.87" waitingTime="3498.00" waitingCount="8" stopTime="0.00" timeLoss="3641.32" rerouteNo="0" devices="tripinfo_f_0.27" vType="car_0" speedFactor="0.97" vaporized=""/>
    <tripinfo id="f_0.28" depart="2653.00" departLane="E0_0" departPos="7.20" departSpeed="0.00" departDelay="0.36" arrival="6942.00" arrivalLane="E5_0" arrivalPos="300.00" arrivalSpeed="13.89" duration="4289.00" routeLength="10003.87" waitingTime="3401.00" waitingCount="6" stopTime="0.00" timeLoss="3566.33" rerouteNo="0" devices="tripinfo_f_0.28" vType="car_0" speedFactor="1.07" vaporized=""/>
    <tripinfo id="f_0.29" depart="2748.00" departLane="E0_0" departPos="7.20" departSpeed="0.00" departDelay="0.63" arrival="7692.00" arrivalLane="E5_0" arrivalPos="300.00" arrivalSpeed="12.66" duration="4944.00" routeLength="10003.87" waitingTime="4046.00" waitingCount="11" stopTime="0.00" timeLoss="4197.30" rerouteNo="0" devices="tripinfo_f_0.29" vType="car_0" speedFactor="0.97" vaporized=""/>
    <tripinfo id="f_0.30" depart="2843.00" departLane="E0_0" departPos="7.20" departSpeed="0.00" departDelay="0.89" arrival="7694.00" arrivalLane="E5_0" arrivalPos="300.00" arrivalSpeed="13.69" duration="4851.00" routeLength="10003.87" waitingTime="3948.00" waitingCount="10" stopTime="0.00" timeLoss="4129.27" rerouteNo="0" devices="tripinfo_f_0.30" vType="car_0" speedFactor="1.09" vaporized=""/>
    <tripinfo id="f_0.31" depart="2937.00" departLane="E0_0" departPos="7.20" departSpeed="0.00" departDelay="0.15" arrival="7696.00" arrivalLane="E5_0" arrivalPos="300.00" arrivalSpeed="12.78" duration="4759.00" routeLength="10003.87" waitingTime="3856.00" waitingCount="9" stopTime="0.00" timeLoss="4037.33" rerouteNo="0" devices="tripinfo_f_0.31" vType="car_0" speedFactor="1.08" vaporized=""/>
    <tripinfo id="f_0.32" depart="3032.00" departLane="E0_0" departPos="7.20" departSpeed="0.00" departDelay="0.42" arrival="7698.00" arrivalLane="E5_0" arrivalPos="300.00" arrivalSpeed="13.30" duration="4666.00" routeLength="10003.87" waitingTime="3782.00" waitingCount="9" stopTime="0.00" timeLoss="3944.35" rerouteNo="0" devices="tripinfo_f_0.32" vType="car_0" speedFactor="1.00" vaporized=""/>
    <tripinfo id="f_0.33" depart="3127.00" departLane="E0_0" departPos="7.20" departSpeed="0.00" departDelay="0.68" arrival="8449.00" arrivalLane="E5_0" arrivalPos="300.00" arrivalSpeed="13.13" duration="5322.00" routeLength="10003.87" waitingTime="4447.00" waitingCount="8" stopTime="0.00" timeLoss="4600.26" rerouteNo="0" devices="tripinfo_f_0.33" vType="car_0" speedFactor="1.09" vaporized=""/>
    <tripinfo id="f_0.34" depart="3222.00" departLane="E0_0" departPos="7.20" departSpeed="0.00" departDelay="0.94" arrival="8451.00" arrivalLane="E5_0" arrivalPos="300.00" arrivalSpeed="13.84" duration="5229.00" routeLength="10003.87" waitingTime="4354.00" waitingCount="11" stopTime="0.00" timeLoss="4505.60" rerouteNo="0" devices="tripinfo_f_0.34" vType="car_0" speedFactor="1.00" vaporized=""/>
    <tripinfo id="f_0.35" depart="3316.00" departLane="E0_0" departPos="7.20" departSpeed="0.00" departDelay="0.21" arrival="8458.00" arrivalLane="E5_0" arrivalPos="300.00" arrivalSpeed="12.73" duration="5142.00" routeLength="10003.87" waitingTime="4255.00" waitingCount="9" stopTime="0.00" timeLoss="4420.69" rerouteNo="0" devices="tripinfo_f_0.35" vType="car_0" speedFactor="1.01" vaporized=""/>
    <tripinfo id="f_0.36" depart="3411.00" departLane="E0_0" departPos="7.20" departSpeed="0.00" departDelay="0.47" arrival="8464.00" arrivalLane="E5_0" arrivalPos="300.00" arrivalSpeed="13.70" duration="5053.00" routeLength="10003.87" waitingTime="4167.00" waitingCount="11" stopTime="0.00" timeLoss="4321.93" rerouteNo="0" devices="tripinfo_f_0.36" vType="car_0" speedFactor="0.99" vaporized=""/>
    <tripinfo id="f_0.37" depart="3506.00" departLane="E0_0" departPos="7.20" departSpeed="0.00" departDelay="0.73" arrival="8466.00" arrivalLane="E5_0" arrivalPos="300.00" arrivalSpeed="12.78" duration="4960.00" routeLength="10003.87" waitingTime="4070.00" waitingCount="12" stopTime="0.00" timeLoss="4238.10" rerouteNo="0" devices="tripinfo_f_0.37" vType="car_0" speedFactor="1.09" vaporized=""/>
</tripinfos>
