<?xml version="1.0" encoding="UTF-8"?>

<!-- generated on 2025-01-09 14:01:00 by Eclipse SUMO sumo Version v1_20_0+0085-e155ab8699b
<configuration xmlns:xsi="http://www.w3.org/2001/XMLSchema-instance" xsi:noNamespaceSchemaLocation="http://sumo.dlr.de/xsd/sumoConfiguration.xsd">

    <input>
        <net-file value="/home/jian/sumo/project/rayRL/one_way_xml/one_way.net.xml"/>
        <route-files value="/home/jian/sumo/project/rayRL/one_way_xml/one_way.rou.xml"/>
    </input>

    <output>
        <output-prefix value="39-"/>
        <tripinfo-output value="/home/jian/sumo/project/rayRL/one_way_xml/data/default/tripinfo/tripinfo-output.xml"/>
    </output>

    <time>
        <step-length value="1.0"/>
    </time>

    <processing>
        <step-method.ballistic value="True"/>
    </processing>

    <report>
        <no-warnings value="True"/>
        <no-step-log value="True"/>
    </report>

    <traci_server>
        <remote-port value="37987"/>
    </traci_server>

    <gui_only>
        <quit-on-end value="True"/>
        <start value="True"/>
    </gui_only>

</configuration>
-->

<tripinfos xmlns:xsi="http://www.w3.org/2001/XMLSchema-instance" xsi:noNamespaceSchemaLocation="http://sumo.dlr.de/xsd/tripinfo_file.xsd">
    <tripinfo id="f_0.0" depart="0.00" departLane="E0_0" departPos="7.20" departSpeed="0.00" departDelay="0.00" arrival="1519.00" arrivalLane="E5_0" arrivalPos="300.00" arrivalSpeed="13.45" duration="1519.00" routeLength="10003.87" waitingTime="736.00" waitingCount="1" stopTime="0.00" timeLoss="797.48" rerouteNo="0" devices="tripinfo_f_0.0" vType="car_0" speedFactor="1.03" vaporized=""/>
    <tripinfo id="f_0.1" depart="93.00" departLane="E0_0" departPos="7.20" departSpeed="0.00" departDelay="0.69" arrival="2302.00" arrivalLane="E5_0" arrivalPos="300.00" arrivalSpeed="12.88" duration="2209.00" routeLength="10003.87" waitingTime="1385.00" waitingCount="2" stopTime="0.00" timeLoss="1463.29" rerouteNo="0" devices="tripinfo_f_0.1" vType="car_0" speedFactor="0.97" vaporized=""/>
    <tripinfo id="f_0.2" depart="185.00" departLane="E0_0" departPos="7.20" departSpeed="0.00" departDelay="0.38" arrival="2304.00" arrivalLane="E5_0" arrivalPos="300.00" arrivalSpeed="12.92" duration="2119.00" routeLength="10003.87" waitingTime="1293.00" waitingCount="2" stopTime="0.00" timeLoss="1396.24" rerouteNo="0" devices="tripinfo_f_0.2" vType="car_0" speedFactor="1.01" vaporized=""/>
    <tripinfo id="f_0.3" depart="277.00" departLane="E0_0" departPos="7.20" departSpeed="0.00" departDelay="0.08" arrival="2306.00" arrivalLane="E5_0" arrivalPos="300.00" arrivalSpeed="13.22" duration="2029.00" routeLength="10003.87" waitingTime="1203.00" waitingCount="2" stopTime="0.00" timeLoss="1306.35" rerouteNo="0" devices="tripinfo_f_0.3" vType="car_0" speedFactor="1.04" vaporized=""/>
    <tripinfo id="f_0.4" depart="370.00" departLane="E0_0" departPos="7.20" departSpeed="0.00" departDelay="0.77" arrival="2307.00" arrivalLane="E5_0" arrivalPos="300.00" arrivalSpeed="12.73" duration="1937.00" routeLength="10003.87" waitingTime="1108.00" waitingCount="2" stopTime="0.00" timeLoss="1215.74" rerouteNo="0" devices="tripinfo_f_0.4" vType="car_0" speedFactor="1.02" vaporized=""/>
    <tripinfo id="f_0.5" depart="462.00" departLane="E0_0" departPos="7.20" departSpeed="0.00" departDelay="0.46" arrival="3091.00" arrivalLane="E5_0" arrivalPos="300.00" arrivalSpeed="12.69" duration="2629.00" routeLength="10003.87" waitingTime="1752.00" waitingCount="4" stopTime="0.00" timeLoss="1840.89" rerouteNo="0" devices="tripinfo_f_0.5" vType="car_0" speedFactor="0.92" vaporized=""/>
    <tripinfo id="f_0.6" depart="554.00" departLane="E0_0" departPos="7.20" departSpeed="0.00" departDelay="0.15" arrival="3093.00" arrivalLane="E5_0" arrivalPos="300.00" arrivalSpeed="13.26" duration="2539.00" routeLength="10003.87" waitingTime="1660.00" waitingCount="4" stopTime="0.00" timeLoss="1817.55" rerouteNo="0" devices="tripinfo_f_0.6" vType="car_0" speedFactor="1.02" vaporized=""/>
    <tripinfo id="f_0.7" depart="647.00" departLane="E0_0" departPos="7.20" departSpeed="0.00" departDelay="0.84" arrival="3095.00" arrivalLane="E5_0" arrivalPos="300.00" arrivalSpeed="12.36" duration="2448.00" routeLength="10003.87" waitingTime="1564.00" waitingCount="4" stopTime="0.00" timeLoss="1682.42" rerouteNo="0" devices="tripinfo_f_0.7" vType="car_0" speedFactor="0.94" vaporized=""/>
    <tripinfo id="f_0.8" depart="739.00" departLane="E0_0" departPos="7.20" departSpeed="0.00" departDelay="0.54" arrival="3097.00" arrivalLane="E5_0" arrivalPos="300.00" arrivalSpeed="12.46" duration="2358.00" routeLength="10003.87" waitingTime="1468.00" waitingCount="5" stopTime="0.00" timeLoss="1612.56" rerouteNo="0" devices="tripinfo_f_0.8" vType="car_0" speedFactor="0.97" vaporized=""/>
    <tripinfo id="f_0.9" depart="831.00" departLane="E0_0" departPos="7.20" departSpeed="0.00" departDelay="0.23" arrival="3857.00" arrivalLane="E5_0" arrivalPos="300.00" arrivalSpeed="11.88" duration="3026.00" routeLength="10003.87" waitingTime="2144.00" waitingCount="4" stopTime="0.00" timeLoss="2248.74" rerouteNo="0" devices="tripinfo_f_0.9" vType="car_0" speedFactor="0.93" vaporized=""/>
    <tripinfo id="f_0.10" depart="924.00" departLane="E0_0" departPos="7.20" departSpeed="0.00" departDelay="0.92" arrival="3859.00" arrivalLane="E5_0" arrivalPos="300.00" arrivalSpeed="13.36" duration="2935.00" routeLength="10003.87" waitingTime="2087.00" waitingCount="3" stopTime="0.00" timeLoss="2212.72" rerouteNo="0" devices="tripinfo_f_0.10" vType="car_0" speedFactor="1.05" vaporized=""/>
    <tripinfo id="f_0.11" depart="1016.00" departLane="E0_0" departPos="7.20" departSpeed="0.00" departDelay="0.61" arrival="3861.00" arrivalLane="E5_0" arrivalPos="300.00" arrivalSpeed="13.33" duration="2845.00" routeLength="10003.87" waitingTime="1990.00" waitingCount="5" stopTime="0.00" timeLoss="2123.26" rerouteNo="0" devices="tripinfo_f_0.11" vType="car_0" speedFactor="1.01" vaporized=""/>
    <tripinfo id="f_0.12" depart="1108.00" departLane="E0_0" departPos="7.20" departSpeed="0.00" departDelay="0.30" arrival="3863.00" arrivalLane="E5_0" arrivalPos="300.00" arrivalSpeed="13.62" duration="2755.00" routeLength="10003.87" waitingTime="1900.00" waitingCount="4" stopTime="0.00" timeLoss="2033.18" rerouteNo="0" devices="tripinfo_f_0.12" vType="car_0" speedFactor="1.02" vaporized=""/>
    <tripinfo id="f_0.13" depart="1201.00" departLane="E0_0" departPos="7.20" departSpeed="0.00" departDelay="1.00" arrival="3865.00" arrivalLane="E5_0" arrivalPos="300.00" arrivalSpeed="13.50" duration="2664.00" routeLength="10003.87" waitingTime="1810.00" waitingCount="4" stopTime="0.00" timeLoss="1942.26" rerouteNo="0" devices="tripinfo_f_0.13" vType="car_0" speedFactor="1.06" vaporized=""/>
    <tripinfo id="f_0.14" depart="1293.00" departLane="E0_0" departPos="7.20" departSpeed="0.00" departDelay="0.69" arrival="4602.00" arrivalLane="E5_0" arrivalPos="300.00" arrivalSpeed="13.59" duration="3309.00" routeLength="10003.87" waitingTime="2466.00" waitingCount="8" stopTime="0.00" timeLoss="2583.96" rerouteNo="0" devices="tripinfo_f_0.14" vType="car_0" speedFactor="1.00" vaporized=""/>
    <tripinfo id="f_0.15" depart="1385.00" departLane="E0_0" departPos="7.20" departSpeed="0.00" departDelay="0.38" arrival="4620.00" arrivalLane="E5_0" arrivalPos="300.00" arrivalSpeed="12.16" duration="3235.00" routeLength="10003.87" waitingTime="2371.00" waitingCount="7" stopTime="0.00" timeLoss="2485.87" rerouteNo="0" devices="tripinfo_f_0.15" vType="car_0" speedFactor="0.96" vaporized=""/>
    <tripinfo id="f_0.16" depart="1477.00" departLane="E0_0" departPos="7.20" departSpeed="0.00" departDelay="0.07" arrival="4635.00" arrivalLane="E5_0" arrivalPos="300.00" arrivalSpeed="12.85" duration="3158.00" routeLength="10003.87" waitingTime="2268.00" waitingCount="8" stopTime="0.00" timeLoss="2388.49" rerouteNo="0" devices="tripinfo_f_0.16" vType="car_0" speedFactor="0.94" vaporized=""/>
    <tripinfo id="f_0.17" depart="1570.00" departLane="E0_0" departPos="7.20" departSpeed="0.00" departDelay="0.76" arrival="4636.00" arrivalLane="E5_0" arrivalPos="300.00" arrivalSpeed="12.74" duration="3066.00" routeLength="10003.87" waitingTime="2197.00" waitingCount="3" stopTime="0.00" timeLoss="2322.77" rerouteNo="0" devices="tripinfo_f_0.17" vType="car_0" speedFactor="0.97" vaporized=""/>
    <tripinfo id="f_0.18" depart="1662.00" departLane="E0_0" departPos="7.20" departSpeed="0.00" departDelay="0.46" arrival="5384.00" arrivalLane="E5_0" arrivalPos="300.00" arrivalSpeed="12.49" duration="3722.00" routeLength="10003.87" waitingTime="2848.00" waitingCount="4" stopTime="0.00" timeLoss="2976.05" rerouteNo="0" devices="tripinfo_f_0.18" vType="car_0" speedFactor="0.97" vaporized=""/>
    <tripinfo id="f_0.19" depart="1754.00" departLane="E0_0" departPos="7.20" departSpeed="0.00" departDelay="0.15" arrival="5386.00" arrivalLane="E5_0" arrivalPos="300.00" arrivalSpeed="13.87" duration="3632.00" routeLength="10003.87" waitingTime="2755.00" waitingCount="4" stopTime="0.00" timeLoss="2910.24" rerouteNo="0" devices="tripinfo_f_0.19" vType="car_0" speedFactor="1.08" vaporized=""/>
    <tripinfo id="f_0.20" depart="1847.00" departLane="E0_0" departPos="7.20" departSpeed="0.00" departDelay="0.84" arrival="5388.00" arrivalLane="E5_0" arrivalPos="300.00" arrivalSpeed="12.77" duration="3541.00" routeLength="10003.87" waitingTime="2686.00" waitingCount="5" stopTime="0.00" timeLoss="2818.90" rerouteNo="0" devices="tripinfo_f_0.20" vType="car_0" speedFactor="1.01" vaporized=""/>
    <tripinfo id="f_0.21" depart="1939.00" departLane="E0_0" departPos="7.20" departSpeed="0.00" departDelay="0.53" arrival="5390.00" arrivalLane="E5_0" arrivalPos="300.00" arrivalSpeed="13.15" duration="3451.00" routeLength="10003.87" waitingTime="2591.00" waitingCount="5" stopTime="0.00" timeLoss="2728.60" rerouteNo="0" devices="tripinfo_f_0.21" vType="car_0" speedFactor="1.01" vaporized=""/>
    <tripinfo id="f_0.22" depart="2031.00" departLane="E0_0" departPos="7.20" departSpeed="0.00" departDelay="0.22" arrival="6145.00" arrivalLane="E5_0" arrivalPos="300.00" arrivalSpeed="12.45" duration="4114.00" routeLength="10003.87" waitingTime="3252.00" waitingCount="7" stopTime="0.00" timeLoss="3383.19" rerouteNo="0" devices="tripinfo_f_0.22" vType="car_0" speedFactor="0.99" vaporized=""/>
    <tripinfo id="f_0.23" depart="2124.00" departLane="E0_0" departPos="7.20" departSpeed="0.00" departDelay="0.92" arrival="6165.00" arrivalLane="E5_0" arrivalPos="300.00" arrivalSpeed="12.91" duration="4041.00" routeLength="10003.87" waitingTime="3149.00" waitingCount="10" stopTime="0.00" timeLoss="3277.00" rerouteNo="0" devices="tripinfo_f_0.23" vType="car_0" speedFactor="0.94" vaporized=""/>
    <tripinfo id="f_0.24" depart="2216.00" departLane="E0_0" departPos="7.20" departSpeed="0.00" departDelay="0.61" arrival="6183.00" arrivalLane="E5_0" arrivalPos="300.00" arrivalSpeed="11.86" duration="3967.00" routeLength="10003.87" waitingTime="3043.00" waitingCount="9" stopTime="0.00" timeLoss="3177.17" rerouteNo="0" devices="tripinfo_f_0.24" vType="car_0" speedFactor="0.91" vaporized=""/>
    <tripinfo id="f_0.25" depart="2308.00" departLane="E0_0" departPos="7.20" departSpeed="0.00" departDelay="0.30" arrival="6185.00" arrivalLane="E5_0" arrivalPos="300.00" arrivalSpeed="12.77" duration="3877.00" routeLength="10003.87" waitingTime="2952.00" waitingCount="10" stopTime="0.00" timeLoss="3106.18" rerouteNo="0" devices="tripinfo_f_0.25" vType="car_0" speedFactor="0.94" vaporized=""/>
    <tripinfo id="f_0.26" depart="2401.00" departLane="E0_0" departPos="7.20" departSpeed="0.00" departDelay="0.99" arrival="6928.00" arrivalLane="E5_0" arrivalPos="300.00" arrivalSpeed="12.04" duration="4527.00" routeLength="10003.87" waitingTime="3627.00" waitingCount="8" stopTime="0.00" timeLoss="3773.95" rerouteNo="0" devices="tripinfo_f_0.26" vType="car_0" speedFactor="0.96" vaporized=""/>
    <tripinfo id="f_0.27" depart="2493.00" departLane="E0_0" departPos="7.20" departSpeed="0.00" departDelay="0.68" arrival="6930.00" arrivalLane="E5_0" arrivalPos="300.00" arrivalSpeed="13.47" duration="4437.00" routeLength="10003.87" waitingTime="3528.00" waitingCount="8" stopTime="0.00" timeLoss="3695.98" rerouteNo="0" devices="tripinfo_f_0.27" vType="car_0" speedFactor="0.97" vaporized=""/>
    <tripinfo id="f_0.28" depart="2585.00" departLane="E0_0" departPos="7.20" departSpeed="0.00" departDelay="0.38" arrival="6932.00" arrivalLane="E5_0" arrivalPos="300.00" arrivalSpeed="12.78" duration="4347.00" routeLength="10003.87" waitingTime="3466.00" waitingCount="8" stopTime="0.00" timeLoss="3623.98" rerouteNo="0" devices="tripinfo_f_0.28" vType="car_0" speedFactor="1.07" vaporized=""/>
    <tripinfo id="f_0.29" depart="2677.00" departLane="E0_0" departPos="7.20" departSpeed="0.00" departDelay="0.07" arrival="6934.00" arrivalLane="E5_0" arrivalPos="300.00" arrivalSpeed="12.39" duration="4257.00" routeLength="10003.87" waitingTime="3372.00" waitingCount="12" stopTime="0.00" timeLoss="3509.82" rerouteNo="0" devices="tripinfo_f_0.29" vType="car_0" speedFactor="0.97" vaporized=""/>
    <tripinfo id="f_0.30" depart="2770.00" departLane="E0_0" departPos="7.20" departSpeed="0.00" departDelay="0.76" arrival="7681.00" arrivalLane="E5_0" arrivalPos="300.00" arrivalSpeed="13.08" duration="4911.00" routeLength="10003.87" waitingTime="4028.00" waitingCount="11" stopTime="0.00" timeLoss="4189.12" rerouteNo="0" devices="tripinfo_f_0.30" vType="car_0" speedFactor="1.09" vaporized=""/>
    <tripinfo id="f_0.31" depart="2862.00" departLane="E0_0" departPos="7.20" departSpeed="0.00" departDelay="0.45" arrival="7687.00" arrivalLane="E5_0" arrivalPos="300.00" arrivalSpeed="12.68" duration="4825.00" routeLength="10003.87" waitingTime="3936.00" waitingCount="11" stopTime="0.00" timeLoss="4102.75" rerouteNo="0" devices="tripinfo_f_0.31" vType="car_0" speedFactor="1.08" vaporized=""/>
    <tripinfo id="f_0.32" depart="2954.00" departLane="E0_0" departPos="7.20" departSpeed="0.00" departDelay="0.14" arrival="7691.00" arrivalLane="E5_0" arrivalPos="300.00" arrivalSpeed="13.59" duration="4737.00" routeLength="10003.87" waitingTime="3854.00" waitingCount="11" stopTime="0.00" timeLoss="4014.82" rerouteNo="0" devices="tripinfo_f_0.32" vType="car_0" speedFactor="1.00" vaporized=""/>
    <tripinfo id="f_0.33" depart="3047.00" departLane="E0_0" departPos="7.20" departSpeed="0.00" departDelay="0.84" arrival="7693.00" arrivalLane="E5_0" arrivalPos="300.00" arrivalSpeed="13.83" duration="4646.00" routeLength="10003.87" waitingTime="3765.00" waitingCount="17" stopTime="0.00" timeLoss="3924.78" rerouteNo="0" devices="tripinfo_f_0.33" vType="car_0" speedFactor="1.09" vaporized=""/>
    <tripinfo id="f_0.34" depart="3139.00" departLane="E0_0" departPos="7.20" departSpeed="0.00" departDelay="0.53" arrival="8450.00" arrivalLane="E5_0" arrivalPos="300.00" arrivalSpeed="13.60" duration="5311.00" routeLength="10003.87" waitingTime="4442.00" waitingCount="9" stopTime="0.00" timeLoss="4587.25" rerouteNo="0" devices="tripinfo_f_0.34" vType="car_0" speedFactor="1.00" vaporized=""/>
    <tripinfo id="f_0.35" depart="3231.00" departLane="E0_0" departPos="7.20" departSpeed="0.00" departDelay="0.22" arrival="8453.00" arrivalLane="E5_0" arrivalPos="300.00" arrivalSpeed="13.57" duration="5222.00" routeLength="10003.87" waitingTime="4348.00" waitingCount="10" stopTime="0.00" timeLoss="4500.32" rerouteNo="0" devices="tripinfo_f_0.35" vType="car_0" speedFactor="1.01" vaporized=""/>
    <tripinfo id="f_0.36" depart="3324.00" departLane="E0_0" departPos="7.20" departSpeed="0.00" departDelay="0.91" arrival="8462.00" arrivalLane="E5_0" arrivalPos="300.00" arrivalSpeed="13.54" duration="5138.00" routeLength="10003.87" waitingTime="4255.00" waitingCount="11" stopTime="0.00" timeLoss="4406.14" rerouteNo="0" devices="tripinfo_f_0.36" vType="car_0" speedFactor="0.99" vaporized=""/>
    <tripinfo id="f_0.37" depart="3416.00" departLane="E0_0" departPos="7.20" departSpeed="0.00" departDelay="0.60" arrival="8464.00" arrivalLane="E5_0" arrivalPos="300.00" arrivalSpeed="12.83" duration="5048.00" routeLength="10003.87" waitingTime="4164.00" waitingCount="13" stopTime="0.00" timeLoss="4325.45" rerouteNo="0" devices="tripinfo_f_0.37" vType="car_0" speedFactor="1.09" vaporized=""/>
    <tripinfo id="f_0.38" depart="3508.00" departLane="E0_0" departPos="7.20" departSpeed="0.00" departDelay="0.30" arrival="9219.00" arrivalLane="E5_0" arrivalPos="300.00" arrivalSpeed="13.20" duration="5711.00" routeLength="10003.87" waitingTime="4828.00" waitingCount="11" stopTime="0.00" timeLoss="4989.17" rerouteNo="0" devices="tripinfo_f_0.38" vType="car_0" speedFactor="1.05" vaporized=""/>
</tripinfos>
