<?xml version="1.0" encoding="UTF-8"?>

<!-- generated on 2025-01-09 13:58:35 by Eclipse SUMO sumo Version v1_20_0+0085-e155ab8699b
<configuration xmlns:xsi="http://www.w3.org/2001/XMLSchema-instance" xsi:noNamespaceSchemaLocation="http://sumo.dlr.de/xsd/sumoConfiguration.xsd">

    <input>
        <net-file value="/home/jian/sumo/project/rayRL/one_way_xml/one_way.net.xml"/>
        <route-files value="/home/jian/sumo/project/rayRL/one_way_xml/one_way.rou.xml"/>
    </input>

    <output>
        <output-prefix value="4-"/>
        <tripinfo-output value="/home/jian/sumo/project/rayRL/one_way_xml/data/default/tripinfo/tripinfo-output.xml"/>
    </output>

    <time>
        <step-length value="1.0"/>
    </time>

    <processing>
        <step-method.ballistic value="True"/>
    </processing>

    <report>
        <no-warnings value="True"/>
        <no-step-log value="True"/>
    </report>

    <traci_server>
        <remote-port value="42727"/>
    </traci_server>

    <gui_only>
        <quit-on-end value="True"/>
        <start value="True"/>
    </gui_only>

</configuration>
-->

<tripinfos xmlns:xsi="http://www.w3.org/2001/XMLSchema-instance" xsi:noNamespaceSchemaLocation="http://sumo.dlr.de/xsd/tripinfo_file.xsd">
    <tripinfo id="f_0.0" depart="0.00" departLane="E0_0" departPos="7.20" departSpeed="0.00" departDelay="0.00" arrival="1518.00" arrivalLane="E5_0" arrivalPos="300.00" arrivalSpeed="13.45" duration="1518.00" routeLength="10003.87" waitingTime="736.00" waitingCount="1" stopTime="0.00" timeLoss="795.98" rerouteNo="0" devices="tripinfo_f_0.0" vType="car_0" speedFactor="1.03" vaporized=""/>
    <tripinfo id="f_0.1" depart="900.00" departLane="E0_0" departPos="7.20" departSpeed="0.00" departDelay="0.00" arrival="3071.00" arrivalLane="E5_0" arrivalPos="300.00" arrivalSpeed="12.18" duration="2171.00" routeLength="10003.87" waitingTime="1346.00" waitingCount="3" stopTime="0.00" timeLoss="1425.94" rerouteNo="0" devices="tripinfo_f_0.1" vType="car_0" speedFactor="0.97" vaporized=""/>
    <tripinfo id="f_0.2" depart="1800.00" departLane="E0_0" departPos="7.20" departSpeed="0.00" departDelay="0.00" arrival="3073.00" arrivalLane="E5_0" arrivalPos="300.00" arrivalSpeed="13.20" duration="1273.00" routeLength="10003.87" waitingTime="478.00" waitingCount="1" stopTime="0.00" timeLoss="550.10" rerouteNo="0" devices="tripinfo_f_0.2" vType="car_0" speedFactor="1.01" vaporized=""/>
    <tripinfo id="f_0.3" depart="2700.00" departLane="E0_0" departPos="7.20" departSpeed="0.00" departDelay="0.00" arrival="3831.00" arrivalLane="E5_0" arrivalPos="300.00" arrivalSpeed="12.71" duration="1131.00" routeLength="10003.87" waitingTime="342.00" waitingCount="2" stopTime="0.00" timeLoss="409.25" rerouteNo="0" devices="tripinfo_f_0.3" vType="car_0" speedFactor="1.04" vaporized=""/>
</tripinfos>
