<?xml version="1.0" encoding="UTF-8"?>

<!-- generated on 2025-01-09 14:01:05 by Eclipse SUMO sumo Version v1_20_0+0085-e155ab8699b
<configuration xmlns:xsi="http://www.w3.org/2001/XMLSchema-instance" xsi:noNamespaceSchemaLocation="http://sumo.dlr.de/xsd/sumoConfiguration.xsd">

    <input>
        <net-file value="/home/jian/sumo/project/rayRL/one_way_xml/one_way.net.xml"/>
        <route-files value="/home/jian/sumo/project/rayRL/one_way_xml/one_way.rou.xml"/>
    </input>

    <output>
        <output-prefix value="40-"/>
        <tripinfo-output value="/home/jian/sumo/project/rayRL/one_way_xml/data/default/tripinfo/tripinfo-output.xml"/>
    </output>

    <time>
        <step-length value="1.0"/>
    </time>

    <processing>
        <step-method.ballistic value="True"/>
    </processing>

    <report>
        <no-warnings value="True"/>
        <no-step-log value="True"/>
    </report>

    <traci_server>
        <remote-port value="33171"/>
    </traci_server>

    <gui_only>
        <quit-on-end value="True"/>
        <start value="True"/>
    </gui_only>

</configuration>
-->

<tripinfos xmlns:xsi="http://www.w3.org/2001/XMLSchema-instance" xsi:noNamespaceSchemaLocation="http://sumo.dlr.de/xsd/tripinfo_file.xsd">
    <tripinfo id="f_0.0" depart="0.00" departLane="E0_0" departPos="7.20" departSpeed="0.00" departDelay="0.00" arrival="1519.00" arrivalLane="E5_0" arrivalPos="300.00" arrivalSpeed="13.45" duration="1519.00" routeLength="10003.87" waitingTime="736.00" waitingCount="1" stopTime="0.00" timeLoss="796.51" rerouteNo="0" devices="tripinfo_f_0.0" vType="car_0" speedFactor="1.03" vaporized=""/>
    <tripinfo id="f_0.1" depart="90.00" departLane="E0_0" departPos="7.20" departSpeed="0.00" departDelay="0.00" arrival="2300.00" arrivalLane="E5_0" arrivalPos="300.00" arrivalSpeed="13.46" duration="2210.00" routeLength="10003.87" waitingTime="1384.00" waitingCount="2" stopTime="0.00" timeLoss="1465.38" rerouteNo="0" devices="tripinfo_f_0.1" vType="car_0" speedFactor="0.97" vaporized=""/>
    <tripinfo id="f_0.2" depart="180.00" departLane="E0_0" departPos="7.20" departSpeed="0.00" departDelay="0.00" arrival="2302.00" arrivalLane="E5_0" arrivalPos="300.00" arrivalSpeed="13.04" duration="2122.00" routeLength="10003.87" waitingTime="1294.00" waitingCount="2" stopTime="0.00" timeLoss="1400.33" rerouteNo="0" devices="tripinfo_f_0.2" vType="car_0" speedFactor="1.01" vaporized=""/>
    <tripinfo id="f_0.3" depart="270.00" departLane="E0_0" departPos="7.20" departSpeed="0.00" departDelay="0.00" arrival="2304.00" arrivalLane="E5_0" arrivalPos="300.00" arrivalSpeed="13.66" duration="2034.00" routeLength="10003.87" waitingTime="1204.00" waitingCount="2" stopTime="0.00" timeLoss="1311.96" rerouteNo="0" devices="tripinfo_f_0.3" vType="car_0" speedFactor="1.04" vaporized=""/>
    <tripinfo id="f_0.4" depart="360.00" departLane="E0_0" departPos="7.20" departSpeed="0.00" departDelay="0.00" arrival="2306.00" arrivalLane="E5_0" arrivalPos="300.00" arrivalSpeed="13.39" duration="1946.00" routeLength="10003.87" waitingTime="1114.00" waitingCount="3" stopTime="0.00" timeLoss="1223.91" rerouteNo="0" devices="tripinfo_f_0.4" vType="car_0" speedFactor="1.02" vaporized=""/>
    <tripinfo id="f_0.5" depart="450.00" departLane="E0_0" departPos="7.20" departSpeed="0.00" departDelay="0.00" arrival="3093.00" arrivalLane="E5_0" arrivalPos="300.00" arrivalSpeed="11.83" duration="2643.00" routeLength="10003.87" waitingTime="1767.00" waitingCount="4" stopTime="0.00" timeLoss="1854.64" rerouteNo="0" devices="tripinfo_f_0.5" vType="car_0" speedFactor="0.92" vaporized=""/>
    <tripinfo id="f_0.6" depart="540.00" departLane="E0_0" departPos="7.20" departSpeed="0.00" departDelay="0.00" arrival="3095.00" arrivalLane="E5_0" arrivalPos="300.00" arrivalSpeed="13.41" duration="2555.00" routeLength="10003.87" waitingTime="1668.00" waitingCount="4" stopTime="0.00" timeLoss="1832.30" rerouteNo="0" devices="tripinfo_f_0.6" vType="car_0" speedFactor="1.02" vaporized=""/>
    <tripinfo id="f_0.7" depart="630.00" departLane="E0_0" departPos="7.20" departSpeed="0.00" departDelay="0.00" arrival="3097.00" arrivalLane="E5_0" arrivalPos="300.00" arrivalSpeed="12.98" duration="2467.00" routeLength="10003.87" waitingTime="1585.00" waitingCount="5" stopTime="0.00" timeLoss="1700.81" rerouteNo="0" devices="tripinfo_f_0.7" vType="car_0" speedFactor="0.94" vaporized=""/>
    <tripinfo id="f_0.8" depart="720.00" departLane="E0_0" departPos="7.20" departSpeed="0.00" departDelay="0.00" arrival="3099.00" arrivalLane="E5_0" arrivalPos="300.00" arrivalSpeed="12.84" duration="2379.00" routeLength="10003.87" waitingTime="1489.00" waitingCount="5" stopTime="0.00" timeLoss="1633.39" rerouteNo="0" devices="tripinfo_f_0.8" vType="car_0" speedFactor="0.97" vaporized=""/>
    <tripinfo id="f_0.9" depart="810.00" departLane="E0_0" departPos="7.20" departSpeed="0.00" departDelay="0.00" arrival="3858.00" arrivalLane="E5_0" arrivalPos="300.00" arrivalSpeed="11.80" duration="3048.00" routeLength="10003.87" waitingTime="2158.00" waitingCount="3" stopTime="0.00" timeLoss="2271.02" rerouteNo="0" devices="tripinfo_f_0.9" vType="car_0" speedFactor="0.93" vaporized=""/>
    <tripinfo id="f_0.10" depart="900.00" departLane="E0_0" departPos="7.20" departSpeed="0.00" departDelay="0.00" arrival="3860.00" arrivalLane="E5_0" arrivalPos="300.00" arrivalSpeed="13.57" duration="2960.00" routeLength="10003.87" waitingTime="2111.00" waitingCount="4" stopTime="0.00" timeLoss="2238.42" rerouteNo="0" devices="tripinfo_f_0.10" vType="car_0" speedFactor="1.05" vaporized=""/>
    <tripinfo id="f_0.11" depart="990.00" departLane="E0_0" departPos="7.20" departSpeed="0.00" departDelay="0.00" arrival="3862.00" arrivalLane="E5_0" arrivalPos="300.00" arrivalSpeed="13.36" duration="2872.00" routeLength="10003.87" waitingTime="2019.00" waitingCount="4" stopTime="0.00" timeLoss="2150.09" rerouteNo="0" devices="tripinfo_f_0.11" vType="car_0" speedFactor="1.01" vaporized=""/>
    <tripinfo id="f_0.12" depart="1080.00" departLane="E0_0" departPos="7.20" departSpeed="0.00" departDelay="0.00" arrival="3864.00" arrivalLane="E5_0" arrivalPos="300.00" arrivalSpeed="13.07" duration="2784.00" routeLength="10003.87" waitingTime="1930.00" waitingCount="4" stopTime="0.00" timeLoss="2061.45" rerouteNo="0" devices="tripinfo_f_0.12" vType="car_0" speedFactor="1.02" vaporized=""/>
    <tripinfo id="f_0.13" depart="1170.00" departLane="E0_0" departPos="7.20" departSpeed="0.00" departDelay="0.00" arrival="3866.00" arrivalLane="E5_0" arrivalPos="300.00" arrivalSpeed="13.62" duration="2696.00" routeLength="10003.87" waitingTime="1842.00" waitingCount="5" stopTime="0.00" timeLoss="1973.69" rerouteNo="0" devices="tripinfo_f_0.13" vType="car_0" speedFactor="1.06" vaporized=""/>
    <tripinfo id="f_0.14" depart="1260.00" departLane="E0_0" departPos="7.20" departSpeed="0.00" departDelay="0.00" arrival="4602.00" arrivalLane="E5_0" arrivalPos="300.00" arrivalSpeed="12.76" duration="3342.00" routeLength="10003.87" waitingTime="2506.00" waitingCount="6" stopTime="0.00" timeLoss="2616.83" rerouteNo="0" devices="tripinfo_f_0.14" vType="car_0" speedFactor="1.00" vaporized=""/>
    <tripinfo id="f_0.15" depart="1350.00" departLane="E0_0" departPos="7.20" departSpeed="0.00" departDelay="0.00" arrival="4622.00" arrivalLane="E5_0" arrivalPos="300.00" arrivalSpeed="12.91" duration="3272.00" routeLength="10003.87" waitingTime="2406.00" waitingCount="7" stopTime="0.00" timeLoss="2522.99" rerouteNo="0" devices="tripinfo_f_0.15" vType="car_0" speedFactor="0.96" vaporized=""/>
    <tripinfo id="f_0.16" depart="1440.00" departLane="E0_0" departPos="7.20" departSpeed="0.00" departDelay="0.00" arrival="4636.00" arrivalLane="E5_0" arrivalPos="300.00" arrivalSpeed="12.90" duration="3196.00" routeLength="10003.87" waitingTime="2302.00" waitingCount="5" stopTime="0.00" timeLoss="2427.18" rerouteNo="0" devices="tripinfo_f_0.16" vType="car_0" speedFactor="0.94" vaporized=""/>
    <tripinfo id="f_0.17" depart="1530.00" departLane="E0_0" departPos="7.20" departSpeed="0.00" departDelay="0.00" arrival="4638.00" arrivalLane="E5_0" arrivalPos="300.00" arrivalSpeed="13.16" duration="3108.00" routeLength="10003.87" waitingTime="2214.00" waitingCount="7" stopTime="0.00" timeLoss="2363.55" rerouteNo="0" devices="tripinfo_f_0.17" vType="car_0" speedFactor="0.97" vaporized=""/>
    <tripinfo id="f_0.18" depart="1620.00" departLane="E0_0" departPos="7.20" departSpeed="0.00" departDelay="0.00" arrival="5388.00" arrivalLane="E5_0" arrivalPos="300.00" arrivalSpeed="12.64" duration="3768.00" routeLength="10003.87" waitingTime="2913.00" waitingCount="4" stopTime="0.00" timeLoss="3022.54" rerouteNo="0" devices="tripinfo_f_0.18" vType="car_0" speedFactor="0.97" vaporized=""/>
    <tripinfo id="f_0.19" depart="1710.00" departLane="E0_0" departPos="7.20" departSpeed="0.00" departDelay="0.00" arrival="5390.00" arrivalLane="E5_0" arrivalPos="300.00" arrivalSpeed="13.19" duration="3680.00" routeLength="10003.87" waitingTime="2823.00" waitingCount="5" stopTime="0.00" timeLoss="2957.36" rerouteNo="0" devices="tripinfo_f_0.19" vType="car_0" speedFactor="1.08" vaporized=""/>
    <tripinfo id="f_0.20" depart="1800.00" departLane="E0_0" departPos="7.20" departSpeed="0.00" departDelay="0.00" arrival="5392.00" arrivalLane="E5_0" arrivalPos="300.00" arrivalSpeed="12.76" duration="3592.00" routeLength="10003.87" waitingTime="2735.00" waitingCount="6" stopTime="0.00" timeLoss="2869.51" rerouteNo="0" devices="tripinfo_f_0.20" vType="car_0" speedFactor="1.01" vaporized=""/>
    <tripinfo id="f_0.21" depart="1890.00" departLane="E0_0" departPos="7.20" departSpeed="0.00" departDelay="0.00" arrival="6141.00" arrivalLane="E5_0" arrivalPos="300.00" arrivalSpeed="12.60" duration="4251.00" routeLength="10003.87" waitingTime="3392.00" waitingCount="8" stopTime="0.00" timeLoss="3529.87" rerouteNo="0" devices="tripinfo_f_0.21" vType="car_0" speedFactor="1.01" vaporized=""/>
    <tripinfo id="f_0.22" depart="1980.00" departLane="E0_0" departPos="7.20" departSpeed="0.00" departDelay="0.00" arrival="6150.00" arrivalLane="E5_0" arrivalPos="300.00" arrivalSpeed="12.98" duration="4170.00" routeLength="10003.87" waitingTime="3308.00" waitingCount="7" stopTime="0.00" timeLoss="3439.00" rerouteNo="0" devices="tripinfo_f_0.22" vType="car_0" speedFactor="0.99" vaporized=""/>
    <tripinfo id="f_0.23" depart="2070.00" departLane="E0_0" departPos="7.20" departSpeed="0.00" departDelay="0.00" arrival="6168.00" arrivalLane="E5_0" arrivalPos="300.00" arrivalSpeed="12.71" duration="4098.00" routeLength="10003.87" waitingTime="3212.00" waitingCount="9" stopTime="0.00" timeLoss="3334.08" rerouteNo="0" devices="tripinfo_f_0.23" vType="car_0" speedFactor="0.94" vaporized=""/>
    <tripinfo id="f_0.24" depart="2160.00" departLane="E0_0" departPos="7.20" departSpeed="0.00" departDelay="0.00" arrival="6186.00" arrivalLane="E5_0" arrivalPos="300.00" arrivalSpeed="12.35" duration="4026.00" routeLength="10003.87" waitingTime="3107.00" waitingCount="7" stopTime="0.00" timeLoss="3234.62" rerouteNo="0" devices="tripinfo_f_0.24" vType="car_0" speedFactor="0.91" vaporized=""/>
    <tripinfo id="f_0.25" depart="2250.00" departLane="E0_0" departPos="7.20" departSpeed="0.00" departDelay="0.00" arrival="8732.00" arrivalLane="E5_0" arrivalPos="300.00" arrivalSpeed="12.67" duration="6482.00" routeLength="10002.27" waitingTime="5762.00" waitingCount="10" stopTime="0.00" timeLoss="5910.06" rerouteNo="0" devices="tripinfo_f_0.25" vType="car_0" speedFactor="0.94" vaporized=""/>
    <tripinfo id="f_0.26" depart="2340.00" departLane="E0_0" departPos="7.20" departSpeed="0.00" departDelay="0.00" arrival="10737.00" arrivalLane="E5_0" arrivalPos="300.00" arrivalSpeed="12.88" duration="8397.00" routeLength="10002.27" waitingTime="7687.00" waitingCount="13" stopTime="0.00" timeLoss="7839.24" rerouteNo="0" devices="tripinfo_f_0.26" vType="car_0" speedFactor="0.96" vaporized=""/>
    <tripinfo id="f_0.27" depart="2430.00" departLane="E0_0" departPos="7.20" departSpeed="0.00" departDelay="0.00" arrival="12743.00" arrivalLane="E5_0" arrivalPos="300.00" arrivalSpeed="12.52" duration="10313.00" routeLength="10002.27" waitingTime="9590.00" waitingCount="11" stopTime="0.00" timeLoss="9764.27" rerouteNo="0" devices="tripinfo_f_0.27" vType="car_0" speedFactor="0.97" vaporized=""/>
    <tripinfo id="f_0.28" depart="2520.00" departLane="E0_0" departPos="7.20" departSpeed="0.00" departDelay="0.00" arrival="14749.00" arrivalLane="E5_0" arrivalPos="300.00" arrivalSpeed="13.76" duration="12229.00" routeLength="10002.27" waitingTime="11526.00" waitingCount="11" stopTime="0.00" timeLoss="11694.41" rerouteNo="0" devices="tripinfo_f_0.28" vType="car_0" speedFactor="1.07" vaporized=""/>
    <tripinfo id="f_0.29" depart="2610.00" departLane="E0_0" departPos="7.20" departSpeed="0.00" departDelay="0.00" arrival="18759.00" arrivalLane="E5_0" arrivalPos="300.00" arrivalSpeed="13.16" duration="16149.00" routeLength="10002.27" waitingTime="15423.00" waitingCount="17" stopTime="0.00" timeLoss="15595.21" rerouteNo="0" devices="tripinfo_f_0.29" vType="car_0" speedFactor="0.97" vaporized=""/>
    <tripinfo id="f_0.30" depart="2700.00" departLane="E0_0" departPos="7.20" departSpeed="0.00" departDelay="0.00" arrival="20766.00" arrivalLane="E5_0" arrivalPos="300.00" arrivalSpeed="13.17" duration="18066.00" routeLength="10002.27" waitingTime="17333.00" waitingCount="20" stopTime="0.00" timeLoss="17530.77" rerouteNo="0" devices="tripinfo_f_0.30" vType="car_0" speedFactor="1.09" vaporized=""/>
    <tripinfo id="f_0.31" depart="2790.00" departLane="E0_0" departPos="7.20" departSpeed="0.00" departDelay="0.00" arrival="20971.00" arrivalLane="E5_0" arrivalPos="300.00" arrivalSpeed="12.89" duration="18181.00" routeLength="10003.87" waitingTime="17233.00" waitingCount="23" stopTime="0.00" timeLoss="17459.85" rerouteNo="0" devices="tripinfo_f_0.31" vType="car_0" speedFactor="1.08" vaporized=""/>
    <tripinfo id="f_0.32" depart="2880.00" departLane="E0_0" departPos="7.20" departSpeed="0.00" departDelay="0.00" arrival="20977.00" arrivalLane="E5_0" arrivalPos="300.00" arrivalSpeed="13.32" duration="18097.00" routeLength="10003.87" waitingTime="17144.00" waitingCount="22" stopTime="0.00" timeLoss="17375.57" rerouteNo="0" devices="tripinfo_f_0.32" vType="car_0" speedFactor="1.00" vaporized=""/>
    <tripinfo id="f_0.33" depart="2970.00" departLane="E0_0" departPos="7.20" departSpeed="0.00" departDelay="0.00" arrival="20980.00" arrivalLane="E5_0" arrivalPos="300.00" arrivalSpeed="13.51" duration="18010.00" routeLength="10003.87" waitingTime="17063.00" waitingCount="23" stopTime="0.00" timeLoss="17288.45" rerouteNo="0" devices="tripinfo_f_0.33" vType="car_0" speedFactor="1.09" vaporized=""/>
    <tripinfo id="f_0.34" depart="3060.00" departLane="E0_0" departPos="7.20" departSpeed="0.00" departDelay="0.00" arrival="20982.00" arrivalLane="E5_0" arrivalPos="300.00" arrivalSpeed="13.54" duration="17922.00" routeLength="10003.87" waitingTime="16968.00" waitingCount="26" stopTime="0.00" timeLoss="17198.95" rerouteNo="0" devices="tripinfo_f_0.34" vType="car_0" speedFactor="1.00" vaporized=""/>
    <tripinfo id="f_0.35" depart="3150.00" departLane="E0_0" departPos="7.20" departSpeed="0.00" departDelay="0.00" arrival="20985.00" arrivalLane="E5_0" arrivalPos="300.00" arrivalSpeed="12.64" duration="17835.00" routeLength="10003.87" waitingTime="16882.00" waitingCount="28" stopTime="0.00" timeLoss="17112.64" rerouteNo="0" devices="tripinfo_f_0.35" vType="car_0" speedFactor="1.01" vaporized=""/>
    <tripinfo id="f_0.37" depart="3330.00" departLane="E0_0" departPos="7.20" departSpeed="0.00" departDelay="0.00" arrival="20987.00" arrivalLane="E5_0" arrivalPos="300.00" arrivalSpeed="13.56" duration="17657.00" routeLength="10000.67" waitingTime="16552.00" waitingCount="27" stopTime="0.00" timeLoss="16739.28" rerouteNo="0" devices="tripinfo_f_0.37" vType="car_0" speedFactor="1.09" vaporized=""/>
    <tripinfo id="f_0.36" depart="3240.00" departLane="E0_0" departPos="7.20" departSpeed="0.00" departDelay="0.00" arrival="20992.00" arrivalLane="E5_0" arrivalPos="300.00" arrivalSpeed="13.31" duration="17752.00" routeLength="10002.27" waitingTime="16971.00" waitingCount="19" stopTime="0.00" timeLoss="17154.12" rerouteNo="0" devices="tripinfo_f_0.36" vType="car_0" speedFactor="0.99" vaporized=""/>
    <tripinfo id="f_0.38" depart="3420.00" departLane="E0_0" departPos="7.20" departSpeed="0.00" departDelay="0.00" arrival="20994.00" arrivalLane="E5_0" arrivalPos="300.00" arrivalSpeed="12.87" duration="17574.00" routeLength="10002.27" waitingTime="16790.00" waitingCount="18" stopTime="0.00" timeLoss="16985.00" rerouteNo="0" devices="tripinfo_f_0.38" vType="car_0" speedFactor="1.05" vaporized=""/>
    <tripinfo id="f_0.39" depart="3510.00" departLane="E0_0" departPos="7.20" departSpeed="0.00" departDelay="0.00" arrival="21558.00" arrivalLane="E5_0" arrivalPos="300.00" arrivalSpeed="13.01" duration="18048.00" routeLength="10002.27" waitingTime="17250.00" waitingCount="22" stopTime="0.00" timeLoss="17428.59" rerouteNo="0" devices="tripinfo_f_0.39" vType="car_0" speedFactor="0.95" vaporized=""/>
</tripinfos>
