<?xml version="1.0" encoding="UTF-8"?>

<!-- generated on 2025-01-09 14:01:15 by Eclipse SUMO sumo Version v1_20_0+0085-e155ab8699b
<configuration xmlns:xsi="http://www.w3.org/2001/XMLSchema-instance" xsi:noNamespaceSchemaLocation="http://sumo.dlr.de/xsd/sumoConfiguration.xsd">

    <input>
        <net-file value="/home/jian/sumo/project/rayRL/one_way_xml/one_way.net.xml"/>
        <route-files value="/home/jian/sumo/project/rayRL/one_way_xml/one_way.rou.xml"/>
    </input>

    <output>
        <output-prefix value="41-"/>
        <tripinfo-output value="/home/jian/sumo/project/rayRL/one_way_xml/data/default/tripinfo/tripinfo-output.xml"/>
    </output>

    <time>
        <step-length value="1.0"/>
    </time>

    <processing>
        <step-method.ballistic value="True"/>
    </processing>

    <report>
        <no-warnings value="True"/>
        <no-step-log value="True"/>
    </report>

    <traci_server>
        <remote-port value="33285"/>
    </traci_server>

    <gui_only>
        <quit-on-end value="True"/>
        <start value="True"/>
    </gui_only>

</configuration>
-->

<tripinfos xmlns:xsi="http://www.w3.org/2001/XMLSchema-instance" xsi:noNamespaceSchemaLocation="http://sumo.dlr.de/xsd/tripinfo_file.xsd">
    <tripinfo id="f_0.0" depart="0.00" departLane="E0_0" departPos="7.20" departSpeed="0.00" departDelay="0.00" arrival="1520.00" arrivalLane="E5_0" arrivalPos="300.00" arrivalSpeed="13.45" duration="1520.00" routeLength="10003.87" waitingTime="736.00" waitingCount="1" stopTime="0.00" timeLoss="797.42" rerouteNo="0" devices="tripinfo_f_0.0" vType="car_0" speedFactor="1.03" vaporized=""/>
    <tripinfo id="f_0.1" depart="88.00" departLane="E0_0" departPos="7.20" departSpeed="0.00" departDelay="0.20" arrival="2301.00" arrivalLane="E5_0" arrivalPos="300.00" arrivalSpeed="13.46" duration="2213.00" routeLength="10003.87" waitingTime="1386.00" waitingCount="2" stopTime="0.00" timeLoss="1468.08" rerouteNo="0" devices="tripinfo_f_0.1" vType="car_0" speedFactor="0.97" vaporized=""/>
    <tripinfo id="f_0.2" depart="176.00" departLane="E0_0" departPos="7.20" departSpeed="0.00" departDelay="0.39" arrival="2303.00" arrivalLane="E5_0" arrivalPos="300.00" arrivalSpeed="13.04" duration="2127.00" routeLength="10003.87" waitingTime="1295.00" waitingCount="3" stopTime="0.00" timeLoss="1405.33" rerouteNo="0" devices="tripinfo_f_0.2" vType="car_0" speedFactor="1.01" vaporized=""/>
    <tripinfo id="f_0.3" depart="264.00" departLane="E0_0" departPos="7.20" departSpeed="0.00" departDelay="0.59" arrival="2305.00" arrivalLane="E5_0" arrivalPos="300.00" arrivalSpeed="13.66" duration="2041.00" routeLength="10003.87" waitingTime="1211.00" waitingCount="3" stopTime="0.00" timeLoss="1319.82" rerouteNo="0" devices="tripinfo_f_0.3" vType="car_0" speedFactor="1.04" vaporized=""/>
    <tripinfo id="f_0.4" depart="352.00" departLane="E0_0" departPos="7.20" departSpeed="0.00" departDelay="0.78" arrival="2307.00" arrivalLane="E5_0" arrivalPos="300.00" arrivalSpeed="13.39" duration="1955.00" routeLength="10003.87" waitingTime="1139.00" waitingCount="4" stopTime="0.00" timeLoss="1233.69" rerouteNo="0" devices="tripinfo_f_0.4" vType="car_0" speedFactor="1.02" vaporized=""/>
    <tripinfo id="f_0.5" depart="440.00" departLane="E0_0" departPos="7.20" departSpeed="0.00" departDelay="0.98" arrival="3093.00" arrivalLane="E5_0" arrivalPos="300.00" arrivalSpeed="11.83" duration="2653.00" routeLength="10003.87" waitingTime="1766.00" waitingCount="3" stopTime="0.00" timeLoss="1864.02" rerouteNo="0" devices="tripinfo_f_0.5" vType="car_0" speedFactor="0.92" vaporized=""/>
    <tripinfo id="f_0.6" depart="527.00" departLane="E0_0" departPos="7.20" departSpeed="0.00" departDelay="0.17" arrival="3095.00" arrivalLane="E5_0" arrivalPos="300.00" arrivalSpeed="13.41" duration="2568.00" routeLength="10003.87" waitingTime="1684.00" waitingCount="5" stopTime="0.00" timeLoss="1845.51" rerouteNo="0" devices="tripinfo_f_0.6" vType="car_0" speedFactor="1.02" vaporized=""/>
    <tripinfo id="f_0.7" depart="615.00" departLane="E0_0" departPos="7.20" departSpeed="0.00" departDelay="0.37" arrival="3097.00" arrivalLane="E5_0" arrivalPos="300.00" arrivalSpeed="12.98" duration="2482.00" routeLength="10003.87" waitingTime="1593.00" waitingCount="4" stopTime="0.00" timeLoss="1716.33" rerouteNo="0" devices="tripinfo_f_0.7" vType="car_0" speedFactor="0.94" vaporized=""/>
    <tripinfo id="f_0.8" depart="703.00" departLane="E0_0" departPos="7.20" departSpeed="0.00" departDelay="0.56" arrival="3099.00" arrivalLane="E5_0" arrivalPos="300.00" arrivalSpeed="12.84" duration="2396.00" routeLength="10003.87" waitingTime="1508.00" waitingCount="5" stopTime="0.00" timeLoss="1650.26" rerouteNo="0" devices="tripinfo_f_0.8" vType="car_0" speedFactor="0.97" vaporized=""/>
    <tripinfo id="f_0.9" depart="791.00" departLane="E0_0" departPos="7.20" departSpeed="0.00" departDelay="0.76" arrival="3858.00" arrivalLane="E5_0" arrivalPos="300.00" arrivalSpeed="11.80" duration="3067.00" routeLength="10003.87" waitingTime="2197.00" waitingCount="3" stopTime="0.00" timeLoss="2289.86" rerouteNo="0" devices="tripinfo_f_0.9" vType="car_0" speedFactor="0.93" vaporized=""/>
    <tripinfo id="f_0.10" depart="879.00" departLane="E0_0" departPos="7.20" departSpeed="0.00" departDelay="0.95" arrival="3860.00" arrivalLane="E5_0" arrivalPos="300.00" arrivalSpeed="13.57" duration="2981.00" routeLength="10003.87" waitingTime="2111.00" waitingCount="3" stopTime="0.00" timeLoss="2258.96" rerouteNo="0" devices="tripinfo_f_0.10" vType="car_0" speedFactor="1.05" vaporized=""/>
    <tripinfo id="f_0.11" depart="966.00" departLane="E0_0" departPos="7.20" departSpeed="0.00" departDelay="0.15" arrival="3862.00" arrivalLane="E5_0" arrivalPos="300.00" arrivalSpeed="13.36" duration="2896.00" routeLength="10003.87" waitingTime="2021.00" waitingCount="4" stopTime="0.00" timeLoss="2174.54" rerouteNo="0" devices="tripinfo_f_0.11" vType="car_0" speedFactor="1.01" vaporized=""/>
    <tripinfo id="f_0.12" depart="1054.00" departLane="E0_0" departPos="7.20" departSpeed="0.00" departDelay="0.34" arrival="3864.00" arrivalLane="E5_0" arrivalPos="300.00" arrivalSpeed="13.07" duration="2810.00" routeLength="10003.87" waitingTime="1932.00" waitingCount="4" stopTime="0.00" timeLoss="2088.39" rerouteNo="0" devices="tripinfo_f_0.12" vType="car_0" speedFactor="1.02" vaporized=""/>
    <tripinfo id="f_0.13" depart="1142.00" departLane="E0_0" departPos="7.20" departSpeed="0.00" departDelay="0.54" arrival="3866.00" arrivalLane="E5_0" arrivalPos="300.00" arrivalSpeed="13.62" duration="2724.00" routeLength="10003.87" waitingTime="1846.00" waitingCount="4" stopTime="0.00" timeLoss="2002.61" rerouteNo="0" devices="tripinfo_f_0.13" vType="car_0" speedFactor="1.06" vaporized=""/>
    <tripinfo id="f_0.14" depart="1230.00" departLane="E0_0" departPos="7.20" departSpeed="0.00" departDelay="0.73" arrival="4607.00" arrivalLane="E5_0" arrivalPos="300.00" arrivalSpeed="13.31" duration="3377.00" routeLength="10003.87" waitingTime="2538.00" waitingCount="6" stopTime="0.00" timeLoss="2651.53" rerouteNo="0" devices="tripinfo_f_0.14" vType="car_0" speedFactor="1.00" vaporized=""/>
    <tripinfo id="f_0.15" depart="1318.00" departLane="E0_0" departPos="7.20" departSpeed="0.00" departDelay="0.93" arrival="4621.00" arrivalLane="E5_0" arrivalPos="300.00" arrivalSpeed="12.98" duration="3303.00" routeLength="10003.87" waitingTime="2441.00" waitingCount="5" stopTime="0.00" timeLoss="2553.09" rerouteNo="0" devices="tripinfo_f_0.15" vType="car_0" speedFactor="0.96" vaporized=""/>
    <tripinfo id="f_0.16" depart="1405.00" departLane="E0_0" departPos="7.20" departSpeed="0.00" departDelay="0.12" arrival="4634.00" arrivalLane="E5_0" arrivalPos="300.00" arrivalSpeed="12.39" duration="3229.00" routeLength="10003.87" waitingTime="2345.00" waitingCount="6" stopTime="0.00" timeLoss="2460.95" rerouteNo="0" devices="tripinfo_f_0.16" vType="car_0" speedFactor="0.94" vaporized=""/>
    <tripinfo id="f_0.17" depart="1493.00" departLane="E0_0" departPos="7.20" departSpeed="0.00" departDelay="0.32" arrival="4636.00" arrivalLane="E5_0" arrivalPos="300.00" arrivalSpeed="13.23" duration="3143.00" routeLength="10003.87" waitingTime="2257.00" waitingCount="8" stopTime="0.00" timeLoss="2399.15" rerouteNo="0" devices="tripinfo_f_0.17" vType="car_0" speedFactor="0.97" vaporized=""/>
    <tripinfo id="f_0.18" depart="1581.00" departLane="E0_0" departPos="7.20" departSpeed="0.00" departDelay="0.51" arrival="5382.00" arrivalLane="E5_0" arrivalPos="300.00" arrivalSpeed="12.33" duration="3801.00" routeLength="10003.87" waitingTime="2950.00" waitingCount="5" stopTime="0.00" timeLoss="3054.63" rerouteNo="0" devices="tripinfo_f_0.18" vType="car_0" speedFactor="0.97" vaporized=""/>
    <tripinfo id="f_0.19" depart="1669.00" departLane="E0_0" departPos="7.20" departSpeed="0.00" departDelay="0.71" arrival="5383.00" arrivalLane="E5_0" arrivalPos="300.00" arrivalSpeed="12.62" duration="3714.00" routeLength="10003.87" waitingTime="2861.00" waitingCount="6" stopTime="0.00" timeLoss="2992.66" rerouteNo="0" devices="tripinfo_f_0.19" vType="car_0" speedFactor="1.08" vaporized=""/>
    <tripinfo id="f_0.20" depart="1757.00" departLane="E0_0" departPos="7.20" departSpeed="0.00" departDelay="0.90" arrival="5385.00" arrivalLane="E5_0" arrivalPos="300.00" arrivalSpeed="13.83" duration="3628.00" routeLength="10003.87" waitingTime="2771.00" waitingCount="7" stopTime="0.00" timeLoss="2906.58" rerouteNo="0" devices="tripinfo_f_0.20" vType="car_0" speedFactor="1.01" vaporized=""/>
    <tripinfo id="f_0.21" depart="1844.00" departLane="E0_0" departPos="7.20" departSpeed="0.00" departDelay="0.10" arrival="5387.00" arrivalLane="E5_0" arrivalPos="300.00" arrivalSpeed="13.27" duration="3543.00" routeLength="10003.87" waitingTime="2688.00" waitingCount="6" stopTime="0.00" timeLoss="2821.05" rerouteNo="0" devices="tripinfo_f_0.21" vType="car_0" speedFactor="1.01" vaporized=""/>
    <tripinfo id="f_0.22" depart="1932.00" departLane="E0_0" departPos="7.20" departSpeed="0.00" departDelay="0.29" arrival="5390.00" arrivalLane="E5_0" arrivalPos="300.00" arrivalSpeed="13.68" duration="3458.00" routeLength="10003.87" waitingTime="2597.00" waitingCount="7" stopTime="0.00" timeLoss="2726.48" rerouteNo="0" devices="tripinfo_f_0.22" vType="car_0" speedFactor="0.99" vaporized=""/>
    <tripinfo id="f_0.23" depart="2020.00" departLane="E0_0" departPos="7.20" departSpeed="0.00" departDelay="0.49" arrival="6161.00" arrivalLane="E5_0" arrivalPos="300.00" arrivalSpeed="11.91" duration="4141.00" routeLength="10003.87" waitingTime="3254.00" waitingCount="10" stopTime="0.00" timeLoss="3376.22" rerouteNo="0" devices="tripinfo_f_0.23" vType="car_0" speedFactor="0.94" vaporized=""/>
    <tripinfo id="f_0.24" depart="2108.00" departLane="E0_0" departPos="7.20" departSpeed="0.00" departDelay="0.68" arrival="6178.00" arrivalLane="E5_0" arrivalPos="300.00" arrivalSpeed="12.54" duration="4070.00" routeLength="10003.87" waitingTime="3157.00" waitingCount="7" stopTime="0.00" timeLoss="3279.75" rerouteNo="0" devices="tripinfo_f_0.24" vType="car_0" speedFactor="0.91" vaporized=""/>
    <tripinfo id="f_0.25" depart="2196.00" departLane="E0_0" departPos="7.20" departSpeed="0.00" departDelay="0.88" arrival="6180.00" arrivalLane="E5_0" arrivalPos="300.00" arrivalSpeed="12.39" duration="3984.00" routeLength="10003.87" waitingTime="3069.00" waitingCount="7" stopTime="0.00" timeLoss="3212.67" rerouteNo="0" devices="tripinfo_f_0.25" vType="car_0" speedFactor="0.94" vaporized=""/>
    <tripinfo id="f_0.26" depart="2283.00" departLane="E0_0" departPos="7.20" departSpeed="0.00" departDelay="0.07" arrival="6182.00" arrivalLane="E5_0" arrivalPos="300.00" arrivalSpeed="12.15" duration="3899.00" routeLength="10003.87" waitingTime="2978.00" waitingCount="12" stopTime="0.00" timeLoss="3145.77" rerouteNo="0" devices="tripinfo_f_0.26" vType="car_0" speedFactor="0.96" vaporized=""/>
    <tripinfo id="f_0.27" depart="2371.00" departLane="E0_0" departPos="7.20" departSpeed="0.00" departDelay="0.27" arrival="6921.00" arrivalLane="E5_0" arrivalPos="300.00" arrivalSpeed="12.64" duration="4550.00" routeLength="10003.87" waitingTime="3687.00" waitingCount="7" stopTime="0.00" timeLoss="3809.53" rerouteNo="0" devices="tripinfo_f_0.27" vType="car_0" speedFactor="0.97" vaporized=""/>
    <tripinfo id="f_0.28" depart="2459.00" departLane="E0_0" departPos="7.20" departSpeed="0.00" departDelay="0.46" arrival="6923.00" arrivalLane="E5_0" arrivalPos="300.00" arrivalSpeed="13.09" duration="4464.00" routeLength="10003.87" waitingTime="3598.00" waitingCount="9" stopTime="0.00" timeLoss="3742.18" rerouteNo="0" devices="tripinfo_f_0.28" vType="car_0" speedFactor="1.07" vaporized=""/>
    <tripinfo id="f_0.29" depart="2547.00" departLane="E0_0" departPos="7.20" departSpeed="0.00" departDelay="0.66" arrival="6929.00" arrivalLane="E5_0" arrivalPos="300.00" arrivalSpeed="12.51" duration="4382.00" routeLength="10003.87" waitingTime="3508.00" waitingCount="8" stopTime="0.00" timeLoss="3634.61" rerouteNo="0" devices="tripinfo_f_0.29" vType="car_0" speedFactor="0.97" vaporized=""/>
    <tripinfo id="f_0.30" depart="2635.00" departLane="E0_0" departPos="7.20" departSpeed="0.00" departDelay="0.85" arrival="6931.00" arrivalLane="E5_0" arrivalPos="300.00" arrivalSpeed="13.81" duration="4296.00" routeLength="10003.87" waitingTime="3423.00" waitingCount="9" stopTime="0.00" timeLoss="3574.05" rerouteNo="0" devices="tripinfo_f_0.30" vType="car_0" speedFactor="1.09" vaporized=""/>
    <tripinfo id="f_0.31" depart="2722.00" departLane="E0_0" departPos="7.20" departSpeed="0.00" departDelay="0.05" arrival="6933.00" arrivalLane="E5_0" arrivalPos="300.00" arrivalSpeed="13.01" duration="4211.00" routeLength="10003.87" waitingTime="3344.00" waitingCount="11" stopTime="0.00" timeLoss="3489.90" rerouteNo="0" devices="tripinfo_f_0.31" vType="car_0" speedFactor="1.08" vaporized=""/>
    <tripinfo id="f_0.32" depart="2810.00" departLane="E0_0" departPos="7.20" departSpeed="0.00" departDelay="0.24" arrival="7681.00" arrivalLane="E5_0" arrivalPos="300.00" arrivalSpeed="13.20" duration="4871.00" routeLength="10003.87" waitingTime="4003.00" waitingCount="10" stopTime="0.00" timeLoss="4149.27" rerouteNo="0" devices="tripinfo_f_0.32" vType="car_0" speedFactor="1.00" vaporized=""/>
    <tripinfo id="f_0.33" depart="2898.00" departLane="E0_0" departPos="7.20" departSpeed="0.00" departDelay="0.44" arrival="7685.00" arrivalLane="E5_0" arrivalPos="300.00" arrivalSpeed="13.84" duration="4787.00" routeLength="10003.87" waitingTime="3912.00" waitingCount="13" stopTime="0.00" timeLoss="4065.19" rerouteNo="0" devices="tripinfo_f_0.33" vType="car_0" speedFactor="1.09" vaporized=""/>
    <tripinfo id="f_0.34" depart="2986.00" departLane="E0_0" departPos="7.20" departSpeed="0.00" departDelay="0.63" arrival="7689.00" arrivalLane="E5_0" arrivalPos="300.00" arrivalSpeed="13.27" duration="4703.00" routeLength="10003.87" waitingTime="3825.00" waitingCount="13" stopTime="0.00" timeLoss="3979.31" rerouteNo="0" devices="tripinfo_f_0.34" vType="car_0" speedFactor="1.00" vaporized=""/>
    <tripinfo id="f_0.35" depart="3074.00" departLane="E0_0" departPos="7.20" departSpeed="0.00" departDelay="0.83" arrival="7691.00" arrivalLane="E5_0" arrivalPos="300.00" arrivalSpeed="13.52" duration="4617.00" routeLength="10003.87" waitingTime="3732.00" waitingCount="12" stopTime="0.00" timeLoss="3895.15" rerouteNo="0" devices="tripinfo_f_0.35" vType="car_0" speedFactor="1.01" vaporized=""/>
    <tripinfo id="f_0.36" depart="3161.00" departLane="E0_0" departPos="7.20" departSpeed="0.00" departDelay="0.02" arrival="8458.00" arrivalLane="E5_0" arrivalPos="300.00" arrivalSpeed="12.68" duration="5297.00" routeLength="10003.87" waitingTime="4413.00" waitingCount="15" stopTime="0.00" timeLoss="4565.59" rerouteNo="0" devices="tripinfo_f_0.36" vType="car_0" speedFactor="0.99" vaporized=""/>
    <tripinfo id="f_0.37" depart="3249.00" departLane="E0_0" departPos="7.20" departSpeed="0.00" departDelay="0.22" arrival="8460.00" arrivalLane="E5_0" arrivalPos="300.00" arrivalSpeed="12.95" duration="5211.00" routeLength="10003.87" waitingTime="4324.00" waitingCount="15" stopTime="0.00" timeLoss="4489.45" rerouteNo="0" devices="tripinfo_f_0.37" vType="car_0" speedFactor="1.09" vaporized=""/>
    <tripinfo id="f_0.38" depart="3337.00" departLane="E0_0" departPos="7.20" departSpeed="0.00" departDelay="0.41" arrival="8462.00" arrivalLane="E5_0" arrivalPos="300.00" arrivalSpeed="13.43" duration="5125.00" routeLength="10003.87" waitingTime="4237.00" waitingCount="16" stopTime="0.00" timeLoss="4403.22" rerouteNo="0" devices="tripinfo_f_0.38" vType="car_0" speedFactor="1.05" vaporized=""/>
    <tripinfo id="f_0.39" depart="3425.00" departLane="E0_0" departPos="7.20" departSpeed="0.00" departDelay="0.61" arrival="8478.00" arrivalLane="E5_0" arrivalPos="300.00" arrivalSpeed="12.19" duration="5053.00" routeLength="10003.87" waitingTime="4137.00" waitingCount="17" stopTime="0.00" timeLoss="4293.43" rerouteNo="0" devices="tripinfo_f_0.39" vType="car_0" speedFactor="0.95" vaporized=""/>
    <tripinfo id="f_0.40" depart="3513.00" departLane="E0_0" departPos="7.20" departSpeed="0.00" departDelay="0.80" arrival="8480.00" arrivalLane="E5_0" arrivalPos="300.00" arrivalSpeed="13.41" duration="4967.00" routeLength="10003.87" waitingTime="4042.00" waitingCount="17" stopTime="0.00" timeLoss="4244.73" rerouteNo="0" devices="tripinfo_f_0.40" vType="car_0" speedFactor="1.02" vaporized=""/>
</tripinfos>
