<?xml version="1.0" encoding="UTF-8"?>

<!-- generated on 2025-01-09 14:01:20 by Eclipse SUMO sumo Version v1_20_0+0085-e155ab8699b
<configuration xmlns:xsi="http://www.w3.org/2001/XMLSchema-instance" xsi:noNamespaceSchemaLocation="http://sumo.dlr.de/xsd/sumoConfiguration.xsd">

    <input>
        <net-file value="/home/jian/sumo/project/rayRL/one_way_xml/one_way.net.xml"/>
        <route-files value="/home/jian/sumo/project/rayRL/one_way_xml/one_way.rou.xml"/>
    </input>

    <output>
        <output-prefix value="42-"/>
        <tripinfo-output value="/home/jian/sumo/project/rayRL/one_way_xml/data/default/tripinfo/tripinfo-output.xml"/>
    </output>

    <time>
        <step-length value="1.0"/>
    </time>

    <processing>
        <step-method.ballistic value="True"/>
    </processing>

    <report>
        <no-warnings value="True"/>
        <no-step-log value="True"/>
    </report>

    <traci_server>
        <remote-port value="58067"/>
    </traci_server>

    <gui_only>
        <quit-on-end value="True"/>
        <start value="True"/>
    </gui_only>

</configuration>
-->

<tripinfos xmlns:xsi="http://www.w3.org/2001/XMLSchema-instance" xsi:noNamespaceSchemaLocation="http://sumo.dlr.de/xsd/tripinfo_file.xsd">
    <tripinfo id="f_0.0" depart="0.00" departLane="E0_0" departPos="7.20" departSpeed="0.00" departDelay="0.00" arrival="1520.00" arrivalLane="E5_0" arrivalPos="300.00" arrivalSpeed="13.45" duration="1520.00" routeLength="10003.87" waitingTime="736.00" waitingCount="1" stopTime="0.00" timeLoss="798.33" rerouteNo="0" devices="tripinfo_f_0.0" vType="car_0" speedFactor="1.03" vaporized=""/>
    <tripinfo id="f_0.1" depart="86.00" departLane="E0_0" departPos="7.20" departSpeed="0.00" departDelay="0.29" arrival="2301.00" arrivalLane="E5_0" arrivalPos="300.00" arrivalSpeed="12.88" duration="2215.00" routeLength="10003.87" waitingTime="1391.00" waitingCount="2" stopTime="0.00" timeLoss="1469.48" rerouteNo="0" devices="tripinfo_f_0.1" vType="car_0" speedFactor="0.97" vaporized=""/>
    <tripinfo id="f_0.2" depart="172.00" departLane="E0_0" departPos="7.20" departSpeed="0.00" departDelay="0.57" arrival="2303.00" arrivalLane="E5_0" arrivalPos="300.00" arrivalSpeed="12.92" duration="2131.00" routeLength="10003.87" waitingTime="1301.00" waitingCount="3" stopTime="0.00" timeLoss="1409.05" rerouteNo="0" devices="tripinfo_f_0.2" vType="car_0" speedFactor="1.01" vaporized=""/>
    <tripinfo id="f_0.3" depart="258.00" departLane="E0_0" departPos="7.20" departSpeed="0.00" departDelay="0.86" arrival="2304.00" arrivalLane="E5_0" arrivalPos="300.00" arrivalSpeed="12.95" duration="2046.00" routeLength="10003.87" waitingTime="1218.00" waitingCount="3" stopTime="0.00" timeLoss="1324.36" rerouteNo="0" devices="tripinfo_f_0.3" vType="car_0" speedFactor="1.04" vaporized=""/>
    <tripinfo id="f_0.4" depart="343.00" departLane="E0_0" departPos="7.20" departSpeed="0.00" departDelay="0.14" arrival="2306.00" arrivalLane="E5_0" arrivalPos="300.00" arrivalSpeed="13.28" duration="1963.00" routeLength="10003.87" waitingTime="1131.00" waitingCount="3" stopTime="0.00" timeLoss="1241.17" rerouteNo="0" devices="tripinfo_f_0.4" vType="car_0" speedFactor="1.02" vaporized=""/>
    <tripinfo id="f_0.5" depart="429.00" departLane="E0_0" departPos="7.20" departSpeed="0.00" departDelay="0.43" arrival="3093.00" arrivalLane="E5_0" arrivalPos="300.00" arrivalSpeed="11.76" duration="2664.00" routeLength="10003.87" waitingTime="1783.00" waitingCount="4" stopTime="0.00" timeLoss="1875.43" rerouteNo="0" devices="tripinfo_f_0.5" vType="car_0" speedFactor="0.92" vaporized=""/>
    <tripinfo id="f_0.6" depart="515.00" departLane="E0_0" departPos="7.20" departSpeed="0.00" departDelay="0.72" arrival="3095.00" arrivalLane="E5_0" arrivalPos="300.00" arrivalSpeed="12.31" duration="2580.00" routeLength="10003.87" waitingTime="1698.00" waitingCount="3" stopTime="0.00" timeLoss="1858.14" rerouteNo="0" devices="tripinfo_f_0.6" vType="car_0" speedFactor="1.02" vaporized=""/>
    <tripinfo id="f_0.7" depart="600.00" departLane="E0_0" departPos="7.20" departSpeed="0.00" departDelay="0.00" arrival="3097.00" arrivalLane="E5_0" arrivalPos="300.00" arrivalSpeed="12.74" duration="2497.00" routeLength="10003.87" waitingTime="1610.00" waitingCount="4" stopTime="0.00" timeLoss="1731.41" rerouteNo="0" devices="tripinfo_f_0.7" vType="car_0" speedFactor="0.94" vaporized=""/>
    <tripinfo id="f_0.8" depart="686.00" departLane="E0_0" departPos="7.20" departSpeed="0.00" departDelay="0.29" arrival="3099.00" arrivalLane="E5_0" arrivalPos="300.00" arrivalSpeed="12.58" duration="2413.00" routeLength="10003.87" waitingTime="1526.00" waitingCount="5" stopTime="0.00" timeLoss="1668.12" rerouteNo="0" devices="tripinfo_f_0.8" vType="car_0" speedFactor="0.97" vaporized=""/>
    <tripinfo id="f_0.9" depart="772.00" departLane="E0_0" departPos="7.20" departSpeed="0.00" departDelay="0.57" arrival="3101.00" arrivalLane="E5_0" arrivalPos="300.00" arrivalSpeed="12.78" duration="2329.00" routeLength="10003.87" waitingTime="1448.00" waitingCount="2" stopTime="0.00" timeLoss="1551.07" rerouteNo="0" devices="tripinfo_f_0.9" vType="car_0" speedFactor="0.93" vaporized=""/>
    <tripinfo id="f_0.10" depart="858.00" departLane="E0_0" departPos="7.20" departSpeed="0.00" departDelay="0.86" arrival="3830.00" arrivalLane="E5_0" arrivalPos="300.00" arrivalSpeed="13.72" duration="2972.00" routeLength="10003.87" waitingTime="2154.00" waitingCount="4" stopTime="0.00" timeLoss="2250.06" rerouteNo="0" devices="tripinfo_f_0.10" vType="car_0" speedFactor="1.05" vaporized=""/>
    <tripinfo id="f_0.11" depart="943.00" departLane="E0_0" departPos="7.20" departSpeed="0.00" departDelay="0.15" arrival="3833.00" arrivalLane="E5_0" arrivalPos="300.00" arrivalSpeed="12.86" duration="2890.00" routeLength="10003.87" waitingTime="2068.00" waitingCount="4" stopTime="0.00" timeLoss="2167.76" rerouteNo="0" devices="tripinfo_f_0.11" vType="car_0" speedFactor="1.01" vaporized=""/>
    <tripinfo id="f_0.12" depart="1029.00" departLane="E0_0" departPos="7.20" departSpeed="0.00" departDelay="0.43" arrival="3835.00" arrivalLane="E5_0" arrivalPos="300.00" arrivalSpeed="13.44" duration="2806.00" routeLength="10003.87" waitingTime="1983.00" waitingCount="4" stopTime="0.00" timeLoss="2084.71" rerouteNo="0" devices="tripinfo_f_0.12" vType="car_0" speedFactor="1.02" vaporized=""/>
    <tripinfo id="f_0.13" depart="1115.00" departLane="E0_0" departPos="7.20" departSpeed="0.00" departDelay="0.72" arrival="3838.00" arrivalLane="E5_0" arrivalPos="300.00" arrivalSpeed="12.60" duration="2723.00" routeLength="10003.87" waitingTime="1899.00" waitingCount="5" stopTime="0.00" timeLoss="2001.84" rerouteNo="0" devices="tripinfo_f_0.13" vType="car_0" speedFactor="1.06" vaporized=""/>
    <tripinfo id="f_0.14" depart="1200.00" departLane="E0_0" departPos="7.20" departSpeed="0.00" departDelay="0.00" arrival="3841.00" arrivalLane="E5_0" arrivalPos="300.00" arrivalSpeed="12.61" duration="2641.00" routeLength="10003.87" waitingTime="1820.00" waitingCount="6" stopTime="0.00" timeLoss="1915.83" rerouteNo="0" devices="tripinfo_f_0.14" vType="car_0" speedFactor="1.00" vaporized=""/>
    <tripinfo id="f_0.15" depart="1286.00" departLane="E0_0" departPos="7.20" departSpeed="0.00" departDelay="0.29" arrival="4616.00" arrivalLane="E5_0" arrivalPos="300.00" arrivalSpeed="12.18" duration="3330.00" routeLength="10003.87" waitingTime="2472.00" waitingCount="6" stopTime="0.00" timeLoss="2580.41" rerouteNo="0" devices="tripinfo_f_0.15" vType="car_0" speedFactor="0.96" vaporized=""/>
    <tripinfo id="f_0.16" depart="1372.00" departLane="E0_0" departPos="7.20" departSpeed="0.00" departDelay="0.58" arrival="4628.00" arrivalLane="E5_0" arrivalPos="300.00" arrivalSpeed="12.38" duration="3256.00" routeLength="10003.87" waitingTime="2372.00" waitingCount="6" stopTime="0.00" timeLoss="2487.46" rerouteNo="0" devices="tripinfo_f_0.16" vType="car_0" speedFactor="0.94" vaporized=""/>
    <tripinfo id="f_0.17" depart="1458.00" departLane="E0_0" departPos="7.20" departSpeed="0.00" departDelay="0.86" arrival="4630.00" arrivalLane="E5_0" arrivalPos="300.00" arrivalSpeed="12.77" duration="3172.00" routeLength="10003.87" waitingTime="2286.00" waitingCount="7" stopTime="0.00" timeLoss="2428.17" rerouteNo="0" devices="tripinfo_f_0.17" vType="car_0" speedFactor="0.97" vaporized=""/>
    <tripinfo id="f_0.18" depart="1543.00" departLane="E0_0" departPos="7.20" departSpeed="0.00" departDelay="0.15" arrival="4632.00" arrivalLane="E5_0" arrivalPos="300.00" arrivalSpeed="12.60" duration="3089.00" routeLength="10003.87" waitingTime="2212.00" waitingCount="6" stopTime="0.00" timeLoss="2343.07" rerouteNo="0" devices="tripinfo_f_0.18" vType="car_0" speedFactor="0.97" vaporized=""/>
    <tripinfo id="f_0.19" depart="1629.00" departLane="E0_0" departPos="7.20" departSpeed="0.00" departDelay="0.43" arrival="4634.00" arrivalLane="E5_0" arrivalPos="300.00" arrivalSpeed="12.46" duration="3005.00" routeLength="10003.87" waitingTime="2161.00" waitingCount="6" stopTime="0.00" timeLoss="2283.59" rerouteNo="0" devices="tripinfo_f_0.19" vType="car_0" speedFactor="1.08" vaporized=""/>
    <tripinfo id="f_0.20" depart="1715.00" departLane="E0_0" departPos="7.20" departSpeed="0.00" departDelay="0.72" arrival="5370.00" arrivalLane="E5_0" arrivalPos="300.00" arrivalSpeed="13.15" duration="3655.00" routeLength="10003.87" waitingTime="2821.00" waitingCount="10" stopTime="0.00" timeLoss="2932.66" rerouteNo="0" devices="tripinfo_f_0.20" vType="car_0" speedFactor="1.01" vaporized=""/>
    <tripinfo id="f_0.21" depart="1800.00" departLane="E0_0" departPos="7.20" departSpeed="0.00" departDelay="0.01" arrival="5372.00" arrivalLane="E5_0" arrivalPos="300.00" arrivalSpeed="13.28" duration="3572.00" routeLength="10003.87" waitingTime="2735.00" waitingCount="7" stopTime="0.00" timeLoss="2850.01" rerouteNo="0" devices="tripinfo_f_0.21" vType="car_0" speedFactor="1.01" vaporized=""/>
    <tripinfo id="f_0.22" depart="1886.00" departLane="E0_0" departPos="7.20" departSpeed="0.00" departDelay="0.29" arrival="5381.00" arrivalLane="E5_0" arrivalPos="300.00" arrivalSpeed="12.67" duration="3495.00" routeLength="10003.87" waitingTime="2650.00" waitingCount="10" stopTime="0.00" timeLoss="2764.67" rerouteNo="0" devices="tripinfo_f_0.22" vType="car_0" speedFactor="0.99" vaporized=""/>
    <tripinfo id="f_0.23" depart="1972.00" departLane="E0_0" departPos="7.20" departSpeed="0.00" departDelay="0.58" arrival="6162.00" arrivalLane="E5_0" arrivalPos="300.00" arrivalSpeed="12.40" duration="4190.00" routeLength="10003.87" waitingTime="3303.00" waitingCount="10" stopTime="0.00" timeLoss="3426.59" rerouteNo="0" devices="tripinfo_f_0.23" vType="car_0" speedFactor="0.94" vaporized=""/>
    <tripinfo id="f_0.24" depart="2058.00" departLane="E0_0" departPos="7.20" departSpeed="0.00" departDelay="0.86" arrival="6180.00" arrivalLane="E5_0" arrivalPos="300.00" arrivalSpeed="12.66" duration="4122.00" routeLength="10003.87" waitingTime="3211.00" waitingCount="10" stopTime="0.00" timeLoss="3331.30" rerouteNo="0" devices="tripinfo_f_0.24" vType="car_0" speedFactor="0.91" vaporized=""/>
    <tripinfo id="f_0.25" depart="2143.00" departLane="E0_0" departPos="7.20" departSpeed="0.00" departDelay="0.15" arrival="6182.00" arrivalLane="E5_0" arrivalPos="300.00" arrivalSpeed="11.84" duration="4039.00" routeLength="10003.87" waitingTime="3114.00" waitingCount="10" stopTime="0.00" timeLoss="3268.26" rerouteNo="0" devices="tripinfo_f_0.25" vType="car_0" speedFactor="0.94" vaporized=""/>
    <tripinfo id="f_0.26" depart="2229.00" departLane="E0_0" departPos="7.20" departSpeed="0.00" departDelay="0.44" arrival="6184.00" arrivalLane="E5_0" arrivalPos="300.00" arrivalSpeed="12.68" duration="3955.00" routeLength="10003.87" waitingTime="3028.00" waitingCount="11" stopTime="0.00" timeLoss="3201.93" rerouteNo="0" devices="tripinfo_f_0.26" vType="car_0" speedFactor="0.96" vaporized=""/>
    <tripinfo id="f_0.27" depart="2315.00" departLane="E0_0" departPos="7.20" departSpeed="0.00" departDelay="0.72" arrival="6186.00" arrivalLane="E5_0" arrivalPos="300.00" arrivalSpeed="12.83" duration="3871.00" routeLength="10003.87" waitingTime="2944.00" waitingCount="10" stopTime="0.00" timeLoss="3129.93" rerouteNo="0" devices="tripinfo_f_0.27" vType="car_0" speedFactor="0.97" vaporized=""/>
    <tripinfo id="f_0.28" depart="2400.00" departLane="E0_0" departPos="7.20" departSpeed="0.00" departDelay="0.01" arrival="6909.00" arrivalLane="E5_0" arrivalPos="300.00" arrivalSpeed="13.14" duration="4509.00" routeLength="10003.87" waitingTime="3657.00" waitingCount="8" stopTime="0.00" timeLoss="3787.52" rerouteNo="0" devices="tripinfo_f_0.28" vType="car_0" speedFactor="1.07" vaporized=""/>
    <tripinfo id="f_0.29" depart="2486.00" departLane="E0_0" departPos="7.20" departSpeed="0.00" departDelay="0.29" arrival="6928.00" arrivalLane="E5_0" arrivalPos="300.00" arrivalSpeed="12.66" duration="4442.00" routeLength="10003.87" waitingTime="3562.00" waitingCount="9" stopTime="0.00" timeLoss="3695.08" rerouteNo="0" devices="tripinfo_f_0.29" vType="car_0" speedFactor="0.97" vaporized=""/>
    <tripinfo id="f_0.30" depart="2572.00" departLane="E0_0" departPos="7.20" departSpeed="0.00" departDelay="0.58" arrival="6930.00" arrivalLane="E5_0" arrivalPos="300.00" arrivalSpeed="13.69" duration="4358.00" routeLength="10003.87" waitingTime="3477.00" waitingCount="9" stopTime="0.00" timeLoss="3636.70" rerouteNo="0" devices="tripinfo_f_0.30" vType="car_0" speedFactor="1.09" vaporized=""/>
    <tripinfo id="f_0.31" depart="2658.00" departLane="E0_0" departPos="7.20" departSpeed="0.00" departDelay="0.87" arrival="6932.00" arrivalLane="E5_0" arrivalPos="300.00" arrivalSpeed="12.78" duration="4274.00" routeLength="10003.87" waitingTime="3392.00" waitingCount="11" stopTime="0.00" timeLoss="3552.57" rerouteNo="0" devices="tripinfo_f_0.31" vType="car_0" speedFactor="1.08" vaporized=""/>
    <tripinfo id="f_0.32" depart="2743.00" departLane="E0_0" departPos="7.20" departSpeed="0.00" departDelay="0.15" arrival="6934.00" arrivalLane="E5_0" arrivalPos="300.00" arrivalSpeed="13.30" duration="4191.00" routeLength="10003.87" waitingTime="3319.00" waitingCount="9" stopTime="0.00" timeLoss="3469.06" rerouteNo="0" devices="tripinfo_f_0.32" vType="car_0" speedFactor="1.00" vaporized=""/>
    <tripinfo id="f_0.33" depart="2829.00" departLane="E0_0" departPos="7.20" departSpeed="0.00" departDelay="0.44" arrival="7680.00" arrivalLane="E5_0" arrivalPos="300.00" arrivalSpeed="13.77" duration="4851.00" routeLength="10003.87" waitingTime="3980.00" waitingCount="12" stopTime="0.00" timeLoss="4129.93" rerouteNo="0" devices="tripinfo_f_0.33" vType="car_0" speedFactor="1.09" vaporized=""/>
    <tripinfo id="f_0.34" depart="2915.00" departLane="E0_0" departPos="7.20" departSpeed="0.00" departDelay="0.72" arrival="7688.00" arrivalLane="E5_0" arrivalPos="300.00" arrivalSpeed="13.77" duration="4773.00" routeLength="10003.87" waitingTime="3891.00" waitingCount="11" stopTime="0.00" timeLoss="4048.74" rerouteNo="0" devices="tripinfo_f_0.34" vType="car_0" speedFactor="1.00" vaporized=""/>
    <tripinfo id="f_0.35" depart="3000.00" departLane="E0_0" departPos="7.20" departSpeed="0.00" departDelay="0.01" arrival="7690.00" arrivalLane="E5_0" arrivalPos="300.00" arrivalSpeed="13.47" duration="4690.00" routeLength="10003.87" waitingTime="3807.00" waitingCount="12" stopTime="0.00" timeLoss="3968.34" rerouteNo="0" devices="tripinfo_f_0.35" vType="car_0" speedFactor="1.01" vaporized=""/>
    <tripinfo id="f_0.36" depart="3086.00" departLane="E0_0" departPos="7.20" departSpeed="0.00" departDelay="0.30" arrival="7697.00" arrivalLane="E5_0" arrivalPos="300.00" arrivalSpeed="13.32" duration="4611.00" routeLength="10003.87" waitingTime="3719.00" waitingCount="14" stopTime="0.00" timeLoss="3879.06" rerouteNo="0" devices="tripinfo_f_0.36" vType="car_0" speedFactor="0.99" vaporized=""/>
    <tripinfo id="f_0.37" depart="3172.00" departLane="E0_0" departPos="7.20" departSpeed="0.00" departDelay="0.58" arrival="8448.00" arrivalLane="E5_0" arrivalPos="300.00" arrivalSpeed="13.78" duration="5276.00" routeLength="10003.87" waitingTime="4409.00" waitingCount="15" stopTime="0.00" timeLoss="4553.90" rerouteNo="0" devices="tripinfo_f_0.37" vType="car_0" speedFactor="1.09" vaporized=""/>
    <tripinfo id="f_0.38" depart="3258.00" departLane="E0_0" departPos="7.20" departSpeed="0.00" departDelay="0.87" arrival="8451.00" arrivalLane="E5_0" arrivalPos="300.00" arrivalSpeed="13.30" duration="5193.00" routeLength="10003.87" waitingTime="4317.00" waitingCount="16" stopTime="0.00" timeLoss="4471.11" rerouteNo="0" devices="tripinfo_f_0.38" vType="car_0" speedFactor="1.05" vaporized=""/>
    <tripinfo id="f_0.39" depart="3343.00" departLane="E0_0" departPos="7.20" departSpeed="0.00" departDelay="0.15" arrival="8473.00" arrivalLane="E5_0" arrivalPos="300.00" arrivalSpeed="12.74" duration="5130.00" routeLength="10003.87" waitingTime="4217.00" waitingCount="13" stopTime="0.00" timeLoss="4369.79" rerouteNo="0" devices="tripinfo_f_0.39" vType="car_0" speedFactor="0.95" vaporized=""/>
    <tripinfo id="f_0.40" depart="3429.00" departLane="E0_0" departPos="7.20" departSpeed="0.00" departDelay="0.44" arrival="8475.00" arrivalLane="E5_0" arrivalPos="300.00" arrivalSpeed="13.81" duration="5046.00" routeLength="10003.87" waitingTime="4131.00" waitingCount="14" stopTime="0.00" timeLoss="4324.47" rerouteNo="0" devices="tripinfo_f_0.40" vType="car_0" speedFactor="1.02" vaporized=""/>
    <tripinfo id="f_0.41" depart="3515.00" departLane="E0_0" departPos="7.20" departSpeed="0.00" departDelay="0.73" arrival="8477.00" arrivalLane="E5_0" arrivalPos="300.00" arrivalSpeed="12.74" duration="4962.00" routeLength="10003.87" waitingTime="4063.00" waitingCount="10" stopTime="0.00" timeLoss="4224.45" rerouteNo="0" devices="tripinfo_f_0.41" vType="car_0" speedFactor="0.98" vaporized=""/>
    <tripinfo id="f_0.42" depart="3600.00" departLane="E0_0" departPos="7.20" departSpeed="0.00" departDelay="0.01" arrival="9219.00" arrivalLane="E5_0" arrivalPos="300.00" arrivalSpeed="13.36" duration="5619.00" routeLength="10003.87" waitingTime="4723.00" waitingCount="12" stopTime="0.00" timeLoss="4897.72" rerouteNo="0" devices="tripinfo_f_0.42" vType="car_0" speedFactor="1.05" vaporized=""/>
</tripinfos>
