<?xml version="1.0" encoding="UTF-8"?>

<!-- generated on 2025-01-09 14:01:25 by Eclipse SUMO sumo Version v1_20_0+0085-e155ab8699b
<configuration xmlns:xsi="http://www.w3.org/2001/XMLSchema-instance" xsi:noNamespaceSchemaLocation="http://sumo.dlr.de/xsd/sumoConfiguration.xsd">

    <input>
        <net-file value="/home/jian/sumo/project/rayRL/one_way_xml/one_way.net.xml"/>
        <route-files value="/home/jian/sumo/project/rayRL/one_way_xml/one_way.rou.xml"/>
    </input>

    <output>
        <output-prefix value="43-"/>
        <tripinfo-output value="/home/jian/sumo/project/rayRL/one_way_xml/data/default/tripinfo/tripinfo-output.xml"/>
    </output>

    <time>
        <step-length value="1.0"/>
    </time>

    <processing>
        <step-method.ballistic value="True"/>
    </processing>

    <report>
        <no-warnings value="True"/>
        <no-step-log value="True"/>
    </report>

    <traci_server>
        <remote-port value="35629"/>
    </traci_server>

    <gui_only>
        <quit-on-end value="True"/>
        <start value="True"/>
    </gui_only>

</configuration>
-->

<tripinfos xmlns:xsi="http://www.w3.org/2001/XMLSchema-instance" xsi:noNamespaceSchemaLocation="http://sumo.dlr.de/xsd/tripinfo_file.xsd">
    <tripinfo id="f_0.0" depart="0.00" departLane="E0_0" departPos="7.20" departSpeed="0.00" departDelay="0.00" arrival="1520.00" arrivalLane="E5_0" arrivalPos="300.00" arrivalSpeed="13.45" duration="1520.00" routeLength="10003.87" waitingTime="736.00" waitingCount="1" stopTime="0.00" timeLoss="798.13" rerouteNo="0" devices="tripinfo_f_0.0" vType="car_0" speedFactor="1.03" vaporized=""/>
    <tripinfo id="f_0.1" depart="84.00" departLane="E0_0" departPos="7.20" departSpeed="0.00" departDelay="0.28" arrival="2301.00" arrivalLane="E5_0" arrivalPos="300.00" arrivalSpeed="13.46" duration="2217.00" routeLength="10003.87" waitingTime="1392.00" waitingCount="3" stopTime="0.00" timeLoss="1472.46" rerouteNo="0" devices="tripinfo_f_0.1" vType="car_0" speedFactor="0.97" vaporized=""/>
    <tripinfo id="f_0.2" depart="168.00" departLane="E0_0" departPos="7.20" departSpeed="0.00" departDelay="0.56" arrival="2303.00" arrivalLane="E5_0" arrivalPos="300.00" arrivalSpeed="13.04" duration="2135.00" routeLength="10003.87" waitingTime="1304.00" waitingCount="3" stopTime="0.00" timeLoss="1412.42" rerouteNo="0" devices="tripinfo_f_0.2" vType="car_0" speedFactor="1.01" vaporized=""/>
    <tripinfo id="f_0.3" depart="252.00" departLane="E0_0" departPos="7.20" departSpeed="0.00" departDelay="0.84" arrival="2305.00" arrivalLane="E5_0" arrivalPos="300.00" arrivalSpeed="13.66" duration="2053.00" routeLength="10003.87" waitingTime="1223.00" waitingCount="3" stopTime="0.00" timeLoss="1331.22" rerouteNo="0" devices="tripinfo_f_0.3" vType="car_0" speedFactor="1.04" vaporized=""/>
    <tripinfo id="f_0.4" depart="335.00" departLane="E0_0" departPos="7.20" departSpeed="0.00" departDelay="0.12" arrival="2307.00" arrivalLane="E5_0" arrivalPos="300.00" arrivalSpeed="13.39" duration="1972.00" routeLength="10003.87" waitingTime="1142.00" waitingCount="3" stopTime="0.00" timeLoss="1249.76" rerouteNo="0" devices="tripinfo_f_0.4" vType="car_0" speedFactor="1.02" vaporized=""/>
    <tripinfo id="f_0.5" depart="419.00" departLane="E0_0" departPos="7.20" departSpeed="0.00" departDelay="0.40" arrival="3092.00" arrivalLane="E5_0" arrivalPos="300.00" arrivalSpeed="11.72" duration="2673.00" routeLength="10003.87" waitingTime="1788.00" waitingCount="3" stopTime="0.00" timeLoss="1885.02" rerouteNo="0" devices="tripinfo_f_0.5" vType="car_0" speedFactor="0.92" vaporized=""/>
    <tripinfo id="f_0.6" depart="503.00" departLane="E0_0" departPos="7.20" departSpeed="0.00" departDelay="0.67" arrival="3094.00" arrivalLane="E5_0" arrivalPos="300.00" arrivalSpeed="13.00" duration="2591.00" routeLength="10003.87" waitingTime="1716.00" waitingCount="3" stopTime="0.00" timeLoss="1869.15" rerouteNo="0" devices="tripinfo_f_0.6" vType="car_0" speedFactor="1.02" vaporized=""/>
    <tripinfo id="f_0.7" depart="587.00" departLane="E0_0" departPos="7.20" departSpeed="0.00" departDelay="0.95" arrival="3096.00" arrivalLane="E5_0" arrivalPos="300.00" arrivalSpeed="12.83" duration="2509.00" routeLength="10003.87" waitingTime="1622.00" waitingCount="3" stopTime="0.00" timeLoss="1743.42" rerouteNo="0" devices="tripinfo_f_0.7" vType="car_0" speedFactor="0.94" vaporized=""/>
    <tripinfo id="f_0.8" depart="670.00" departLane="E0_0" departPos="7.20" departSpeed="0.00" departDelay="0.23" arrival="3098.00" arrivalLane="E5_0" arrivalPos="300.00" arrivalSpeed="13.01" duration="2428.00" routeLength="10003.87" waitingTime="1538.00" waitingCount="4" stopTime="0.00" timeLoss="1682.71" rerouteNo="0" devices="tripinfo_f_0.8" vType="car_0" speedFactor="0.97" vaporized=""/>
    <tripinfo id="f_0.9" depart="754.00" departLane="E0_0" departPos="7.20" departSpeed="0.00" departDelay="0.51" arrival="3100.00" arrivalLane="E5_0" arrivalPos="300.00" arrivalSpeed="12.56" duration="2346.00" routeLength="10003.87" waitingTime="1453.00" waitingCount="4" stopTime="0.00" timeLoss="1568.45" rerouteNo="0" devices="tripinfo_f_0.9" vType="car_0" speedFactor="0.93" vaporized=""/>
    <tripinfo id="f_0.10" depart="838.00" departLane="E0_0" departPos="7.20" departSpeed="0.00" departDelay="0.79" arrival="3829.00" arrivalLane="E5_0" arrivalPos="300.00" arrivalSpeed="13.50" duration="2991.00" routeLength="10003.87" waitingTime="2169.00" waitingCount="5" stopTime="0.00" timeLoss="2268.81" rerouteNo="0" devices="tripinfo_f_0.10" vType="car_0" speedFactor="1.05" vaporized=""/>
    <tripinfo id="f_0.11" depart="921.00" departLane="E0_0" departPos="7.20" departSpeed="0.00" departDelay="0.07" arrival="3833.00" arrivalLane="E5_0" arrivalPos="300.00" arrivalSpeed="13.33" duration="2912.00" routeLength="10003.87" waitingTime="2090.00" waitingCount="4" stopTime="0.00" timeLoss="2189.73" rerouteNo="0" devices="tripinfo_f_0.11" vType="car_0" speedFactor="1.01" vaporized=""/>
    <tripinfo id="f_0.12" depart="1005.00" departLane="E0_0" departPos="7.20" departSpeed="0.00" departDelay="0.35" arrival="3837.00" arrivalLane="E5_0" arrivalPos="300.00" arrivalSpeed="13.37" duration="2832.00" routeLength="10003.87" waitingTime="2007.00" waitingCount="4" stopTime="0.00" timeLoss="2109.64" rerouteNo="0" devices="tripinfo_f_0.12" vType="car_0" speedFactor="1.02" vaporized=""/>
    <tripinfo id="f_0.13" depart="1089.00" departLane="E0_0" departPos="7.20" departSpeed="0.00" departDelay="0.63" arrival="3839.00" arrivalLane="E5_0" arrivalPos="300.00" arrivalSpeed="13.53" duration="2750.00" routeLength="10003.87" waitingTime="1922.00" waitingCount="3" stopTime="0.00" timeLoss="2028.72" rerouteNo="0" devices="tripinfo_f_0.13" vType="car_0" speedFactor="1.06" vaporized=""/>
    <tripinfo id="f_0.14" depart="1173.00" departLane="E0_0" departPos="7.20" departSpeed="0.00" departDelay="0.91" arrival="3844.00" arrivalLane="E5_0" arrivalPos="300.00" arrivalSpeed="13.39" duration="2671.00" routeLength="10003.87" waitingTime="1846.00" waitingCount="5" stopTime="0.00" timeLoss="1945.65" rerouteNo="0" devices="tripinfo_f_0.14" vType="car_0" speedFactor="1.00" vaporized=""/>
    <tripinfo id="f_0.15" depart="1256.00" departLane="E0_0" departPos="7.20" departSpeed="0.00" departDelay="0.19" arrival="4615.00" arrivalLane="E5_0" arrivalPos="300.00" arrivalSpeed="12.16" duration="3359.00" routeLength="10003.87" waitingTime="2505.00" waitingCount="6" stopTime="0.00" timeLoss="2610.20" rerouteNo="0" devices="tripinfo_f_0.15" vType="car_0" speedFactor="0.96" vaporized=""/>
    <tripinfo id="f_0.16" depart="1340.00" departLane="E0_0" departPos="7.20" departSpeed="0.00" departDelay="0.46" arrival="4629.00" arrivalLane="E5_0" arrivalPos="300.00" arrivalSpeed="12.95" duration="3289.00" routeLength="10003.87" waitingTime="2407.00" waitingCount="7" stopTime="0.00" timeLoss="2520.18" rerouteNo="0" devices="tripinfo_f_0.16" vType="car_0" speedFactor="0.94" vaporized=""/>
    <tripinfo id="f_0.17" depart="1424.00" departLane="E0_0" departPos="7.20" departSpeed="0.00" departDelay="0.74" arrival="4631.00" arrivalLane="E5_0" arrivalPos="300.00" arrivalSpeed="12.89" duration="3207.00" routeLength="10003.87" waitingTime="2322.00" waitingCount="7" stopTime="0.00" timeLoss="2463.47" rerouteNo="0" devices="tripinfo_f_0.17" vType="car_0" speedFactor="0.97" vaporized=""/>
    <tripinfo id="f_0.18" depart="1507.00" departLane="E0_0" departPos="7.20" departSpeed="0.00" departDelay="0.02" arrival="4633.00" arrivalLane="E5_0" arrivalPos="300.00" arrivalSpeed="12.44" duration="3126.00" routeLength="10003.87" waitingTime="2240.00" waitingCount="7" stopTime="0.00" timeLoss="2380.62" rerouteNo="0" devices="tripinfo_f_0.18" vType="car_0" speedFactor="0.97" vaporized=""/>
    <tripinfo id="f_0.19" depart="1591.00" departLane="E0_0" departPos="7.20" departSpeed="0.00" departDelay="0.30" arrival="4635.00" arrivalLane="E5_0" arrivalPos="300.00" arrivalSpeed="12.67" duration="3044.00" routeLength="10003.87" waitingTime="2198.00" waitingCount="4" stopTime="0.00" timeLoss="2322.52" rerouteNo="0" devices="tripinfo_f_0.19" vType="car_0" speedFactor="1.08" vaporized=""/>
    <tripinfo id="f_0.20" depart="1675.00" departLane="E0_0" departPos="7.20" departSpeed="0.00" departDelay="0.58" arrival="5369.00" arrivalLane="E5_0" arrivalPos="300.00" arrivalSpeed="12.63" duration="3694.00" routeLength="10003.87" waitingTime="2865.00" waitingCount="6" stopTime="0.00" timeLoss="2971.67" rerouteNo="0" devices="tripinfo_f_0.20" vType="car_0" speedFactor="1.01" vaporized=""/>
    <tripinfo id="f_0.21" depart="1759.00" departLane="E0_0" departPos="7.20" departSpeed="0.00" departDelay="0.86" arrival="5373.00" arrivalLane="E5_0" arrivalPos="300.00" arrivalSpeed="13.28" duration="3614.00" routeLength="10003.87" waitingTime="2771.00" waitingCount="7" stopTime="0.00" timeLoss="2892.75" rerouteNo="0" devices="tripinfo_f_0.21" vType="car_0" speedFactor="1.01" vaporized=""/>
    <tripinfo id="f_0.22" depart="1842.00" departLane="E0_0" departPos="7.20" departSpeed="0.00" departDelay="0.14" arrival="5379.00" arrivalLane="E5_0" arrivalPos="300.00" arrivalSpeed="12.86" duration="3537.00" routeLength="10003.87" waitingTime="2699.00" waitingCount="8" stopTime="0.00" timeLoss="2805.45" rerouteNo="0" devices="tripinfo_f_0.22" vType="car_0" speedFactor="0.99" vaporized=""/>
    <tripinfo id="f_0.23" depart="1926.00" departLane="E0_0" departPos="7.20" departSpeed="0.00" departDelay="0.42" arrival="6163.00" arrivalLane="E5_0" arrivalPos="300.00" arrivalSpeed="12.91" duration="4237.00" routeLength="10003.87" waitingTime="3354.00" waitingCount="10" stopTime="0.00" timeLoss="3473.41" rerouteNo="0" devices="tripinfo_f_0.23" vType="car_0" speedFactor="0.94" vaporized=""/>
    <tripinfo id="f_0.24" depart="2010.00" departLane="E0_0" departPos="7.20" departSpeed="0.00" departDelay="0.70" arrival="6179.00" arrivalLane="E5_0" arrivalPos="300.00" arrivalSpeed="11.75" duration="4169.00" routeLength="10003.87" waitingTime="3256.00" waitingCount="8" stopTime="0.00" timeLoss="3377.60" rerouteNo="0" devices="tripinfo_f_0.24" vType="car_0" speedFactor="0.91" vaporized=""/>
    <tripinfo id="f_0.25" depart="2094.00" departLane="E0_0" departPos="7.20" departSpeed="0.00" departDelay="0.98" arrival="6181.00" arrivalLane="E5_0" arrivalPos="300.00" arrivalSpeed="11.75" duration="4087.00" routeLength="10003.87" waitingTime="3170.00" waitingCount="10" stopTime="0.00" timeLoss="3315.47" rerouteNo="0" devices="tripinfo_f_0.25" vType="car_0" speedFactor="0.94" vaporized=""/>
    <tripinfo id="f_0.26" depart="2177.00" departLane="E0_0" departPos="7.20" departSpeed="0.00" departDelay="0.25" arrival="6183.00" arrivalLane="E5_0" arrivalPos="300.00" arrivalSpeed="13.22" duration="4006.00" routeLength="10003.87" waitingTime="3080.00" waitingCount="8" stopTime="0.00" timeLoss="3252.88" rerouteNo="0" devices="tripinfo_f_0.26" vType="car_0" speedFactor="0.96" vaporized=""/>
    <tripinfo id="f_0.27" depart="2261.00" departLane="E0_0" departPos="7.20" departSpeed="0.00" departDelay="0.53" arrival="6185.00" arrivalLane="E5_0" arrivalPos="300.00" arrivalSpeed="12.52" duration="3924.00" routeLength="10003.87" waitingTime="3000.00" waitingCount="9" stopTime="0.00" timeLoss="3182.47" rerouteNo="0" devices="tripinfo_f_0.27" vType="car_0" speedFactor="0.97" vaporized=""/>
    <tripinfo id="f_0.28" depart="2345.00" departLane="E0_0" departPos="7.20" departSpeed="0.00" departDelay="0.81" arrival="6910.00" arrivalLane="E5_0" arrivalPos="300.00" arrivalSpeed="13.59" duration="4565.00" routeLength="10003.87" waitingTime="3710.00" waitingCount="9" stopTime="0.00" timeLoss="3843.62" rerouteNo="0" devices="tripinfo_f_0.28" vType="car_0" speedFactor="1.07" vaporized=""/>
    <tripinfo id="f_0.29" depart="2428.00" departLane="E0_0" departPos="7.20" departSpeed="0.00" departDelay="0.09" arrival="6927.00" arrivalLane="E5_0" arrivalPos="300.00" arrivalSpeed="12.77" duration="4499.00" routeLength="10003.87" waitingTime="3621.00" waitingCount="9" stopTime="0.00" timeLoss="3751.26" rerouteNo="0" devices="tripinfo_f_0.29" vType="car_0" speedFactor="0.97" vaporized=""/>
    <tripinfo id="f_0.30" depart="2512.00" departLane="E0_0" departPos="7.20" departSpeed="0.00" departDelay="0.37" arrival="6929.00" arrivalLane="E5_0" arrivalPos="300.00" arrivalSpeed="12.84" duration="4417.00" routeLength="10003.87" waitingTime="3535.00" waitingCount="9" stopTime="0.00" timeLoss="3695.07" rerouteNo="0" devices="tripinfo_f_0.30" vType="car_0" speedFactor="1.09" vaporized=""/>
    <tripinfo id="f_0.31" depart="2596.00" departLane="E0_0" departPos="7.20" departSpeed="0.00" departDelay="0.65" arrival="6931.00" arrivalLane="E5_0" arrivalPos="300.00" arrivalSpeed="13.30" duration="4335.00" routeLength="10003.87" waitingTime="3452.00" waitingCount="8" stopTime="0.00" timeLoss="3613.01" rerouteNo="0" devices="tripinfo_f_0.31" vType="car_0" speedFactor="1.08" vaporized=""/>
    <tripinfo id="f_0.32" depart="2680.00" departLane="E0_0" departPos="7.20" departSpeed="0.00" departDelay="0.93" arrival="6933.00" arrivalLane="E5_0" arrivalPos="300.00" arrivalSpeed="13.89" duration="4253.00" routeLength="10003.87" waitingTime="3364.00" waitingCount="9" stopTime="0.00" timeLoss="3531.03" rerouteNo="0" devices="tripinfo_f_0.32" vType="car_0" speedFactor="1.00" vaporized=""/>
    <tripinfo id="f_0.33" depart="2763.00" departLane="E0_0" departPos="7.20" departSpeed="0.00" departDelay="0.21" arrival="7682.00" arrivalLane="E5_0" arrivalPos="300.00" arrivalSpeed="13.84" duration="4919.00" routeLength="10003.87" waitingTime="4044.00" waitingCount="8" stopTime="0.00" timeLoss="4197.59" rerouteNo="0" devices="tripinfo_f_0.33" vType="car_0" speedFactor="1.09" vaporized=""/>
    <tripinfo id="f_0.34" depart="2847.00" departLane="E0_0" departPos="7.20" departSpeed="0.00" departDelay="0.49" arrival="7686.00" arrivalLane="E5_0" arrivalPos="300.00" arrivalSpeed="13.27" duration="4839.00" routeLength="10003.87" waitingTime="3959.00" waitingCount="13" stopTime="0.00" timeLoss="4115.22" rerouteNo="0" devices="tripinfo_f_0.34" vType="car_0" speedFactor="1.00" vaporized=""/>
    <tripinfo id="f_0.35" depart="2931.00" departLane="E0_0" departPos="7.20" departSpeed="0.00" departDelay="0.77" arrival="7689.00" arrivalLane="E5_0" arrivalPos="300.00" arrivalSpeed="13.32" duration="4758.00" routeLength="10003.87" waitingTime="3876.00" waitingCount="14" stopTime="0.00" timeLoss="4036.03" rerouteNo="0" devices="tripinfo_f_0.35" vType="car_0" speedFactor="1.01" vaporized=""/>
    <tripinfo id="f_0.36" depart="3014.00" departLane="E0_0" departPos="7.20" departSpeed="0.00" departDelay="0.04" arrival="8453.00" arrivalLane="E5_0" arrivalPos="300.00" arrivalSpeed="13.31" duration="5439.00" routeLength="10003.87" waitingTime="4530.00" waitingCount="12" stopTime="0.00" timeLoss="4708.15" rerouteNo="0" devices="tripinfo_f_0.36" vType="car_0" speedFactor="0.99" vaporized=""/>
    <tripinfo id="f_0.37" depart="3098.00" departLane="E0_0" departPos="7.20" departSpeed="0.00" departDelay="0.32" arrival="8455.00" arrivalLane="E5_0" arrivalPos="300.00" arrivalSpeed="13.43" duration="5357.00" routeLength="10003.87" waitingTime="4464.00" waitingCount="12" stopTime="0.00" timeLoss="4635.50" rerouteNo="0" devices="tripinfo_f_0.37" vType="car_0" speedFactor="1.09" vaporized=""/>
    <tripinfo id="f_0.38" depart="3182.00" departLane="E0_0" departPos="7.20" departSpeed="0.00" departDelay="0.60" arrival="8457.00" arrivalLane="E5_0" arrivalPos="300.00" arrivalSpeed="12.95" duration="5275.00" routeLength="10003.87" waitingTime="4400.00" waitingCount="14" stopTime="0.00" timeLoss="4553.68" rerouteNo="0" devices="tripinfo_f_0.38" vType="car_0" speedFactor="1.05" vaporized=""/>
    <tripinfo id="f_0.39" depart="3266.00" departLane="E0_0" departPos="7.20" departSpeed="0.00" departDelay="0.88" arrival="8475.00" arrivalLane="E5_0" arrivalPos="300.00" arrivalSpeed="12.63" duration="5209.00" routeLength="10003.87" waitingTime="4305.00" waitingCount="9" stopTime="0.00" timeLoss="4450.07" rerouteNo="0" devices="tripinfo_f_0.39" vType="car_0" speedFactor="0.95" vaporized=""/>
    <tripinfo id="f_0.40" depart="3349.00" departLane="E0_0" departPos="7.20" departSpeed="0.00" departDelay="0.16" arrival="9221.00" arrivalLane="E5_0" arrivalPos="300.00" arrivalSpeed="12.96" duration="5872.00" routeLength="10003.87" waitingTime="4962.00" waitingCount="11" stopTime="0.00" timeLoss="5150.14" rerouteNo="0" devices="tripinfo_f_0.40" vType="car_0" speedFactor="1.02" vaporized=""/>
    <tripinfo id="f_0.41" depart="3433.00" departLane="E0_0" departPos="7.20" departSpeed="0.00" departDelay="0.44" arrival="9231.00" arrivalLane="E5_0" arrivalPos="300.00" arrivalSpeed="13.52" duration="5798.00" routeLength="10003.87" waitingTime="4883.00" waitingCount="11" stopTime="0.00" timeLoss="5059.48" rerouteNo="0" devices="tripinfo_f_0.41" vType="car_0" speedFactor="0.98" vaporized=""/>
    <tripinfo id="f_0.42" depart="3517.00" departLane="E0_0" departPos="7.20" departSpeed="0.00" departDelay="0.72" arrival="9232.00" arrivalLane="E5_0" arrivalPos="300.00" arrivalSpeed="13.63" duration="5715.00" routeLength="10003.87" waitingTime="4821.00" waitingCount="13" stopTime="0.00" timeLoss="4993.72" rerouteNo="0" devices="tripinfo_f_0.42" vType="car_0" speedFactor="1.05" vaporized=""/>
</tripinfos>
