<?xml version="1.0" encoding="UTF-8"?>

<!-- generated on 2025-01-09 14:01:30 by Eclipse SUMO sumo Version v1_20_0+0085-e155ab8699b
<configuration xmlns:xsi="http://www.w3.org/2001/XMLSchema-instance" xsi:noNamespaceSchemaLocation="http://sumo.dlr.de/xsd/sumoConfiguration.xsd">

    <input>
        <net-file value="/home/jian/sumo/project/rayRL/one_way_xml/one_way.net.xml"/>
        <route-files value="/home/jian/sumo/project/rayRL/one_way_xml/one_way.rou.xml"/>
    </input>

    <output>
        <output-prefix value="44-"/>
        <tripinfo-output value="/home/jian/sumo/project/rayRL/one_way_xml/data/default/tripinfo/tripinfo-output.xml"/>
    </output>

    <time>
        <step-length value="1.0"/>
    </time>

    <processing>
        <step-method.ballistic value="True"/>
    </processing>

    <report>
        <no-warnings value="True"/>
        <no-step-log value="True"/>
    </report>

    <traci_server>
        <remote-port value="33341"/>
    </traci_server>

    <gui_only>
        <quit-on-end value="True"/>
        <start value="True"/>
    </gui_only>

</configuration>
-->

<tripinfos xmlns:xsi="http://www.w3.org/2001/XMLSchema-instance" xsi:noNamespaceSchemaLocation="http://sumo.dlr.de/xsd/tripinfo_file.xsd">
    <tripinfo id="f_0.0" depart="0.00" departLane="E0_0" departPos="7.20" departSpeed="0.00" departDelay="0.00" arrival="1521.00" arrivalLane="E5_0" arrivalPos="300.00" arrivalSpeed="13.45" duration="1521.00" routeLength="10003.87" waitingTime="736.00" waitingCount="1" stopTime="0.00" timeLoss="798.57" rerouteNo="0" devices="tripinfo_f_0.0" vType="car_0" speedFactor="1.03" vaporized=""/>
    <tripinfo id="f_0.1" depart="82.00" departLane="E0_0" departPos="7.20" departSpeed="0.00" departDelay="0.18" arrival="2301.00" arrivalLane="E5_0" arrivalPos="300.00" arrivalSpeed="13.46" duration="2219.00" routeLength="10003.87" waitingTime="1396.00" waitingCount="2" stopTime="0.00" timeLoss="1474.20" rerouteNo="0" devices="tripinfo_f_0.1" vType="car_0" speedFactor="0.97" vaporized=""/>
    <tripinfo id="f_0.2" depart="164.00" departLane="E0_0" departPos="7.20" departSpeed="0.00" departDelay="0.36" arrival="2303.00" arrivalLane="E5_0" arrivalPos="300.00" arrivalSpeed="13.04" duration="2139.00" routeLength="10003.87" waitingTime="1307.00" waitingCount="3" stopTime="0.00" timeLoss="1417.22" rerouteNo="0" devices="tripinfo_f_0.2" vType="car_0" speedFactor="1.01" vaporized=""/>
    <tripinfo id="f_0.3" depart="246.00" departLane="E0_0" departPos="7.20" departSpeed="0.00" departDelay="0.55" arrival="2305.00" arrivalLane="E5_0" arrivalPos="300.00" arrivalSpeed="13.66" duration="2059.00" routeLength="10003.87" waitingTime="1229.00" waitingCount="3" stopTime="0.00" timeLoss="1336.88" rerouteNo="0" devices="tripinfo_f_0.3" vType="car_0" speedFactor="1.04" vaporized=""/>
    <tripinfo id="f_0.4" depart="328.00" departLane="E0_0" departPos="7.20" departSpeed="0.00" departDelay="0.73" arrival="2307.00" arrivalLane="E5_0" arrivalPos="300.00" arrivalSpeed="13.39" duration="1979.00" routeLength="10003.87" waitingTime="1150.00" waitingCount="2" stopTime="0.00" timeLoss="1256.77" rerouteNo="0" devices="tripinfo_f_0.4" vType="car_0" speedFactor="1.02" vaporized=""/>
    <tripinfo id="f_0.5" depart="410.00" departLane="E0_0" departPos="7.20" departSpeed="0.00" departDelay="0.91" arrival="3093.00" arrivalLane="E5_0" arrivalPos="300.00" arrivalSpeed="11.72" duration="2683.00" routeLength="10003.87" waitingTime="1803.00" waitingCount="3" stopTime="0.00" timeLoss="1894.91" rerouteNo="0" devices="tripinfo_f_0.5" vType="car_0" speedFactor="0.92" vaporized=""/>
    <tripinfo id="f_0.6" depart="491.00" departLane="E0_0" departPos="7.20" departSpeed="0.00" departDelay="0.09" arrival="3095.00" arrivalLane="E5_0" arrivalPos="300.00" arrivalSpeed="12.45" duration="2604.00" routeLength="10003.87" waitingTime="1720.00" waitingCount="3" stopTime="0.00" timeLoss="1882.72" rerouteNo="0" devices="tripinfo_f_0.6" vType="car_0" speedFactor="1.02" vaporized=""/>
    <tripinfo id="f_0.7" depart="573.00" departLane="E0_0" departPos="7.20" departSpeed="0.00" departDelay="0.27" arrival="3097.00" arrivalLane="E5_0" arrivalPos="300.00" arrivalSpeed="12.59" duration="2524.00" routeLength="10003.87" waitingTime="1636.00" waitingCount="4" stopTime="0.00" timeLoss="1758.77" rerouteNo="0" devices="tripinfo_f_0.7" vType="car_0" speedFactor="0.94" vaporized=""/>
    <tripinfo id="f_0.8" depart="655.00" departLane="E0_0" departPos="7.20" departSpeed="0.00" departDelay="0.46" arrival="3099.00" arrivalLane="E5_0" arrivalPos="300.00" arrivalSpeed="12.76" duration="2444.00" routeLength="10003.87" waitingTime="1547.00" waitingCount="5" stopTime="0.00" timeLoss="1699.60" rerouteNo="0" devices="tripinfo_f_0.8" vType="car_0" speedFactor="0.97" vaporized=""/>
    <tripinfo id="f_0.9" depart="737.00" departLane="E0_0" departPos="7.20" departSpeed="0.00" departDelay="0.64" arrival="3858.00" arrivalLane="E5_0" arrivalPos="300.00" arrivalSpeed="12.66" duration="3121.00" routeLength="10003.87" waitingTime="2233.00" waitingCount="6" stopTime="0.00" timeLoss="2343.57" rerouteNo="0" devices="tripinfo_f_0.9" vType="car_0" speedFactor="0.93" vaporized=""/>
    <tripinfo id="f_0.10" depart="819.00" departLane="E0_0" departPos="7.20" departSpeed="0.00" departDelay="0.82" arrival="3860.00" arrivalLane="E5_0" arrivalPos="300.00" arrivalSpeed="13.15" duration="3041.00" routeLength="10003.87" waitingTime="2170.00" waitingCount="4" stopTime="0.00" timeLoss="2319.76" rerouteNo="0" devices="tripinfo_f_0.10" vType="car_0" speedFactor="1.05" vaporized=""/>
    <tripinfo id="f_0.11" depart="900.00" departLane="E0_0" departPos="7.20" departSpeed="0.00" departDelay="0.00" arrival="3862.00" arrivalLane="E5_0" arrivalPos="300.00" arrivalSpeed="13.36" duration="2962.00" routeLength="10003.87" waitingTime="2089.00" waitingCount="4" stopTime="0.00" timeLoss="2240.48" rerouteNo="0" devices="tripinfo_f_0.11" vType="car_0" speedFactor="1.01" vaporized=""/>
    <tripinfo id="f_0.12" depart="982.00" departLane="E0_0" departPos="7.20" departSpeed="0.00" departDelay="0.18" arrival="3864.00" arrivalLane="E5_0" arrivalPos="300.00" arrivalSpeed="13.23" duration="2882.00" routeLength="10003.87" waitingTime="2007.00" waitingCount="5" stopTime="0.00" timeLoss="2160.02" rerouteNo="0" devices="tripinfo_f_0.12" vType="car_0" speedFactor="1.02" vaporized=""/>
    <tripinfo id="f_0.13" depart="1064.00" departLane="E0_0" departPos="7.20" departSpeed="0.00" departDelay="0.37" arrival="3866.00" arrivalLane="E5_0" arrivalPos="300.00" arrivalSpeed="12.88" duration="2802.00" routeLength="10003.87" waitingTime="1922.00" waitingCount="4" stopTime="0.00" timeLoss="2080.04" rerouteNo="0" devices="tripinfo_f_0.13" vType="car_0" speedFactor="1.06" vaporized=""/>
    <tripinfo id="f_0.14" depart="1146.00" departLane="E0_0" departPos="7.20" departSpeed="0.00" departDelay="0.55" arrival="4608.00" arrivalLane="E5_0" arrivalPos="300.00" arrivalSpeed="12.74" duration="3462.00" routeLength="10003.87" waitingTime="2614.00" waitingCount="6" stopTime="0.00" timeLoss="2737.30" rerouteNo="0" devices="tripinfo_f_0.14" vType="car_0" speedFactor="1.00" vaporized=""/>
    <tripinfo id="f_0.15" depart="1228.00" departLane="E0_0" departPos="7.20" departSpeed="0.00" departDelay="0.73" arrival="4623.00" arrivalLane="E5_0" arrivalPos="300.00" arrivalSpeed="12.72" duration="3395.00" routeLength="10003.87" waitingTime="2529.00" waitingCount="8" stopTime="0.00" timeLoss="2646.22" rerouteNo="0" devices="tripinfo_f_0.15" vType="car_0" speedFactor="0.96" vaporized=""/>
    <tripinfo id="f_0.16" depart="1310.00" departLane="E0_0" departPos="7.20" departSpeed="0.00" departDelay="0.91" arrival="4634.00" arrivalLane="E5_0" arrivalPos="300.00" arrivalSpeed="12.76" duration="3324.00" routeLength="10003.87" waitingTime="2433.00" waitingCount="9" stopTime="0.00" timeLoss="2555.46" rerouteNo="0" devices="tripinfo_f_0.16" vType="car_0" speedFactor="0.94" vaporized=""/>
    <tripinfo id="f_0.17" depart="1391.00" departLane="E0_0" departPos="7.20" departSpeed="0.00" departDelay="0.09" arrival="4636.00" arrivalLane="E5_0" arrivalPos="300.00" arrivalSpeed="12.38" duration="3245.00" routeLength="10003.87" waitingTime="2354.00" waitingCount="5" stopTime="0.00" timeLoss="2501.72" rerouteNo="0" devices="tripinfo_f_0.17" vType="car_0" speedFactor="0.97" vaporized=""/>
    <tripinfo id="f_0.18" depart="1473.00" departLane="E0_0" departPos="7.20" departSpeed="0.00" departDelay="0.28" arrival="4638.00" arrivalLane="E5_0" arrivalPos="300.00" arrivalSpeed="13.03" duration="3165.00" routeLength="10003.87" waitingTime="2272.00" waitingCount="7" stopTime="0.00" timeLoss="2419.60" rerouteNo="0" devices="tripinfo_f_0.18" vType="car_0" speedFactor="0.97" vaporized=""/>
    <tripinfo id="f_0.19" depart="1555.00" departLane="E0_0" departPos="7.20" departSpeed="0.00" departDelay="0.46" arrival="5371.00" arrivalLane="E5_0" arrivalPos="300.00" arrivalSpeed="12.94" duration="3816.00" routeLength="10003.87" waitingTime="2977.00" waitingCount="8" stopTime="0.00" timeLoss="3093.88" rerouteNo="0" devices="tripinfo_f_0.19" vType="car_0" speedFactor="1.08" vaporized=""/>
    <tripinfo id="f_0.20" depart="1637.00" departLane="E0_0" departPos="7.20" departSpeed="0.00" departDelay="0.64" arrival="5375.00" arrivalLane="E5_0" arrivalPos="300.00" arrivalSpeed="13.87" duration="3738.00" routeLength="10003.87" waitingTime="2898.00" waitingCount="8" stopTime="0.00" timeLoss="3015.83" rerouteNo="0" devices="tripinfo_f_0.20" vType="car_0" speedFactor="1.01" vaporized=""/>
    <tripinfo id="f_0.21" depart="1719.00" departLane="E0_0" departPos="7.20" departSpeed="0.00" departDelay="0.82" arrival="5377.00" arrivalLane="E5_0" arrivalPos="300.00" arrivalSpeed="13.64" duration="3658.00" routeLength="10003.87" waitingTime="2811.00" waitingCount="4" stopTime="0.00" timeLoss="2936.29" rerouteNo="0" devices="tripinfo_f_0.21" vType="car_0" speedFactor="1.01" vaporized=""/>
    <tripinfo id="f_0.22" depart="1800.00" departLane="E0_0" departPos="7.20" departSpeed="0.00" departDelay="0.00" arrival="5384.00" arrivalLane="E5_0" arrivalPos="300.00" arrivalSpeed="13.48" duration="3584.00" routeLength="10003.87" waitingTime="2735.00" waitingCount="5" stopTime="0.00" timeLoss="2852.89" rerouteNo="0" devices="tripinfo_f_0.22" vType="car_0" speedFactor="0.99" vaporized=""/>
    <tripinfo id="f_0.23" depart="1882.00" departLane="E0_0" departPos="7.20" departSpeed="0.00" departDelay="0.19" arrival="6164.00" arrivalLane="E5_0" arrivalPos="300.00" arrivalSpeed="12.40" duration="4282.00" routeLength="10003.87" waitingTime="3390.00" waitingCount="7" stopTime="0.00" timeLoss="3518.19" rerouteNo="0" devices="tripinfo_f_0.23" vType="car_0" speedFactor="0.94" vaporized=""/>
    <tripinfo id="f_0.24" depart="1964.00" departLane="E0_0" departPos="7.20" departSpeed="0.00" departDelay="0.37" arrival="6181.00" arrivalLane="E5_0" arrivalPos="300.00" arrivalSpeed="12.50" duration="4217.00" routeLength="10003.87" waitingTime="3297.00" waitingCount="6" stopTime="0.00" timeLoss="3425.76" rerouteNo="0" devices="tripinfo_f_0.24" vType="car_0" speedFactor="0.91" vaporized=""/>
    <tripinfo id="f_0.25" depart="2046.00" departLane="E0_0" departPos="7.20" departSpeed="0.00" departDelay="0.55" arrival="6183.00" arrivalLane="E5_0" arrivalPos="300.00" arrivalSpeed="12.23" duration="4137.00" routeLength="10003.87" waitingTime="3212.00" waitingCount="7" stopTime="0.00" timeLoss="3366.06" rerouteNo="0" devices="tripinfo_f_0.25" vType="car_0" speedFactor="0.94" vaporized=""/>
    <tripinfo id="f_0.26" depart="2128.00" departLane="E0_0" departPos="7.20" departSpeed="0.00" departDelay="0.73" arrival="6185.00" arrivalLane="E5_0" arrivalPos="300.00" arrivalSpeed="12.54" duration="4057.00" routeLength="10003.87" waitingTime="3131.00" waitingCount="9" stopTime="0.00" timeLoss="3304.02" rerouteNo="0" devices="tripinfo_f_0.26" vType="car_0" speedFactor="0.96" vaporized=""/>
    <tripinfo id="f_0.27" depart="2210.00" departLane="E0_0" departPos="7.20" departSpeed="0.00" departDelay="0.91" arrival="6920.00" arrivalLane="E5_0" arrivalPos="300.00" arrivalSpeed="12.90" duration="4710.00" routeLength="10003.87" waitingTime="3799.00" waitingCount="10" stopTime="0.00" timeLoss="3968.85" rerouteNo="0" devices="tripinfo_f_0.27" vType="car_0" speedFactor="0.97" vaporized=""/>
    <tripinfo id="f_0.28" depart="2291.00" departLane="E0_0" departPos="7.20" departSpeed="0.00" departDelay="0.10" arrival="6922.00" arrivalLane="E5_0" arrivalPos="300.00" arrivalSpeed="12.86" duration="4631.00" routeLength="10003.87" waitingTime="3744.00" waitingCount="14" stopTime="0.00" timeLoss="3909.75" rerouteNo="0" devices="tripinfo_f_0.28" vType="car_0" speedFactor="1.07" vaporized=""/>
    <tripinfo id="f_0.29" depart="2373.00" departLane="E0_0" departPos="7.20" departSpeed="0.00" departDelay="0.28" arrival="6930.00" arrivalLane="E5_0" arrivalPos="300.00" arrivalSpeed="12.35" duration="4557.00" routeLength="10003.87" waitingTime="3681.00" waitingCount="12" stopTime="0.00" timeLoss="3809.68" rerouteNo="0" devices="tripinfo_f_0.29" vType="car_0" speedFactor="0.97" vaporized=""/>
    <tripinfo id="f_0.30" depart="2455.00" departLane="E0_0" departPos="7.20" departSpeed="0.00" departDelay="0.46" arrival="6932.00" arrivalLane="E5_0" arrivalPos="300.00" arrivalSpeed="13.32" duration="4477.00" routeLength="10003.87" waitingTime="3595.00" waitingCount="12" stopTime="0.00" timeLoss="3755.38" rerouteNo="0" devices="tripinfo_f_0.30" vType="car_0" speedFactor="1.09" vaporized=""/>
    <tripinfo id="f_0.31" depart="2537.00" departLane="E0_0" departPos="7.20" departSpeed="0.00" departDelay="0.64" arrival="6934.00" arrivalLane="E5_0" arrivalPos="300.00" arrivalSpeed="13.33" duration="4397.00" routeLength="10003.87" waitingTime="3508.00" waitingCount="13" stopTime="0.00" timeLoss="3675.57" rerouteNo="0" devices="tripinfo_f_0.31" vType="car_0" speedFactor="1.08" vaporized=""/>
    <tripinfo id="f_0.32" depart="2619.00" departLane="E0_0" departPos="7.20" departSpeed="0.00" departDelay="0.82" arrival="7679.00" arrivalLane="E5_0" arrivalPos="300.00" arrivalSpeed="13.20" duration="5060.00" routeLength="10003.87" waitingTime="4179.00" waitingCount="13" stopTime="0.00" timeLoss="4338.19" rerouteNo="0" devices="tripinfo_f_0.32" vType="car_0" speedFactor="1.00" vaporized=""/>
    <tripinfo id="f_0.33" depart="2700.00" departLane="E0_0" departPos="7.20" departSpeed="0.00" departDelay="0.01" arrival="7682.00" arrivalLane="E5_0" arrivalPos="300.00" arrivalSpeed="13.84" duration="4982.00" routeLength="10003.87" waitingTime="4108.00" waitingCount="12" stopTime="0.00" timeLoss="4260.45" rerouteNo="0" devices="tripinfo_f_0.33" vType="car_0" speedFactor="1.09" vaporized=""/>
    <tripinfo id="f_0.34" depart="2782.00" departLane="E0_0" departPos="7.20" departSpeed="0.00" departDelay="0.19" arrival="7687.00" arrivalLane="E5_0" arrivalPos="300.00" arrivalSpeed="13.84" duration="4905.00" routeLength="10003.87" waitingTime="4024.00" waitingCount="11" stopTime="0.00" timeLoss="4180.68" rerouteNo="0" devices="tripinfo_f_0.34" vType="car_0" speedFactor="1.00" vaporized=""/>
    <tripinfo id="f_0.35" depart="2864.00" departLane="E0_0" departPos="7.20" departSpeed="0.00" departDelay="0.37" arrival="7689.00" arrivalLane="E5_0" arrivalPos="300.00" arrivalSpeed="13.14" duration="4825.00" routeLength="10003.87" waitingTime="3941.00" waitingCount="14" stopTime="0.00" timeLoss="4103.77" rerouteNo="0" devices="tripinfo_f_0.35" vType="car_0" speedFactor="1.01" vaporized=""/>
    <tripinfo id="f_0.36" depart="2946.00" departLane="E0_0" departPos="7.20" departSpeed="0.00" departDelay="0.55" arrival="7697.00" arrivalLane="E5_0" arrivalPos="300.00" arrivalSpeed="13.31" duration="4751.00" routeLength="10003.87" waitingTime="3862.00" waitingCount="14" stopTime="0.00" timeLoss="4018.67" rerouteNo="0" devices="tripinfo_f_0.36" vType="car_0" speedFactor="0.99" vaporized=""/>
    <tripinfo id="f_0.37" depart="3028.00" departLane="E0_0" departPos="7.20" departSpeed="0.00" departDelay="0.73" arrival="8449.00" arrivalLane="E5_0" arrivalPos="300.00" arrivalSpeed="12.99" duration="5421.00" routeLength="10003.87" waitingTime="4529.00" waitingCount="15" stopTime="0.00" timeLoss="4699.68" rerouteNo="0" devices="tripinfo_f_0.37" vType="car_0" speedFactor="1.09" vaporized=""/>
    <tripinfo id="f_0.38" depart="3110.00" departLane="E0_0" departPos="7.20" departSpeed="0.00" departDelay="0.92" arrival="8454.00" arrivalLane="E5_0" arrivalPos="300.00" arrivalSpeed="13.29" duration="5344.00" routeLength="10003.87" waitingTime="4461.00" waitingCount="13" stopTime="0.00" timeLoss="4621.56" rerouteNo="0" devices="tripinfo_f_0.38" vType="car_0" speedFactor="1.05" vaporized=""/>
    <tripinfo id="f_0.39" depart="3191.00" departLane="E0_0" departPos="7.20" departSpeed="0.00" departDelay="0.10" arrival="8474.00" arrivalLane="E5_0" arrivalPos="300.00" arrivalSpeed="12.73" duration="5283.00" routeLength="10003.87" waitingTime="4378.00" waitingCount="12" stopTime="0.00" timeLoss="4523.51" rerouteNo="0" devices="tripinfo_f_0.39" vType="car_0" speedFactor="0.95" vaporized=""/>
    <tripinfo id="f_0.40" depart="3273.00" departLane="E0_0" departPos="7.20" departSpeed="0.00" departDelay="0.28" arrival="8476.00" arrivalLane="E5_0" arrivalPos="300.00" arrivalSpeed="12.75" duration="5203.00" routeLength="10003.87" waitingTime="4296.00" waitingCount="10" stopTime="0.00" timeLoss="4480.69" rerouteNo="0" devices="tripinfo_f_0.40" vType="car_0" speedFactor="1.02" vaporized=""/>
    <tripinfo id="f_0.41" depart="3355.00" departLane="E0_0" departPos="7.20" departSpeed="0.00" departDelay="0.46" arrival="8478.00" arrivalLane="E5_0" arrivalPos="300.00" arrivalSpeed="13.36" duration="5123.00" routeLength="10003.87" waitingTime="4221.00" waitingCount="12" stopTime="0.00" timeLoss="4385.16" rerouteNo="0" devices="tripinfo_f_0.41" vType="car_0" speedFactor="0.98" vaporized=""/>
    <tripinfo id="f_0.42" depart="3437.00" departLane="E0_0" departPos="7.20" departSpeed="0.00" departDelay="0.64" arrival="9221.00" arrivalLane="E5_0" arrivalPos="300.00" arrivalSpeed="12.64" duration="5784.00" routeLength="10003.87" waitingTime="4894.00" waitingCount="13" stopTime="0.00" timeLoss="5062.88" rerouteNo="0" devices="tripinfo_f_0.42" vType="car_0" speedFactor="1.05" vaporized=""/>
    <tripinfo id="f_0.43" depart="3519.00" departLane="E0_0" departPos="7.20" departSpeed="0.00" departDelay="0.83" arrival="9224.00" arrivalLane="E5_0" arrivalPos="300.00" arrivalSpeed="12.63" duration="5705.00" routeLength="10003.87" waitingTime="4811.00" waitingCount="12" stopTime="0.00" timeLoss="4983.76" rerouteNo="0" devices="tripinfo_f_0.43" vType="car_0" speedFactor="1.02" vaporized=""/>
    <tripinfo id="f_0.44" depart="3600.00" departLane="E0_0" departPos="7.20" departSpeed="0.00" departDelay="0.01" arrival="9227.00" arrivalLane="E5_0" arrivalPos="300.00" arrivalSpeed="13.65" duration="5627.00" routeLength="10003.87" waitingTime="4729.00" waitingCount="20" stopTime="0.00" timeLoss="4904.86" rerouteNo="0" devices="tripinfo_f_0.44" vType="car_0" speedFactor="1.02" vaporized=""/>
</tripinfos>
