<?xml version="1.0" encoding="UTF-8"?>

<!-- generated on 2025-01-09 14:01:36 by Eclipse SUMO sumo Version v1_20_0+0085-e155ab8699b
<configuration xmlns:xsi="http://www.w3.org/2001/XMLSchema-instance" xsi:noNamespaceSchemaLocation="http://sumo.dlr.de/xsd/sumoConfiguration.xsd">

    <input>
        <net-file value="/home/jian/sumo/project/rayRL/one_way_xml/one_way.net.xml"/>
        <route-files value="/home/jian/sumo/project/rayRL/one_way_xml/one_way.rou.xml"/>
    </input>

    <output>
        <output-prefix value="45-"/>
        <tripinfo-output value="/home/jian/sumo/project/rayRL/one_way_xml/data/default/tripinfo/tripinfo-output.xml"/>
    </output>

    <time>
        <step-length value="1.0"/>
    </time>

    <processing>
        <step-method.ballistic value="True"/>
    </processing>

    <report>
        <no-warnings value="True"/>
        <no-step-log value="True"/>
    </report>

    <traci_server>
        <remote-port value="40003"/>
    </traci_server>

    <gui_only>
        <quit-on-end value="True"/>
        <start value="True"/>
    </gui_only>

</configuration>
-->

<tripinfos xmlns:xsi="http://www.w3.org/2001/XMLSchema-instance" xsi:noNamespaceSchemaLocation="http://sumo.dlr.de/xsd/tripinfo_file.xsd">
    <tripinfo id="f_0.0" depart="0.00" departLane="E0_0" departPos="7.20" departSpeed="0.00" departDelay="0.00" arrival="1520.00" arrivalLane="E5_0" arrivalPos="300.00" arrivalSpeed="13.45" duration="1520.00" routeLength="10003.87" waitingTime="736.00" waitingCount="1" stopTime="0.00" timeLoss="797.65" rerouteNo="0" devices="tripinfo_f_0.0" vType="car_0" speedFactor="1.03" vaporized=""/>
    <tripinfo id="f_0.1" depart="80.00" departLane="E0_0" departPos="7.20" departSpeed="0.00" departDelay="0.00" arrival="2299.00" arrivalLane="E5_0" arrivalPos="300.00" arrivalSpeed="13.46" duration="2219.00" routeLength="10003.87" waitingTime="1396.00" waitingCount="2" stopTime="0.00" timeLoss="1473.89" rerouteNo="0" devices="tripinfo_f_0.1" vType="car_0" speedFactor="0.97" vaporized=""/>
    <tripinfo id="f_0.2" depart="160.00" departLane="E0_0" departPos="7.20" departSpeed="0.00" departDelay="0.00" arrival="2301.00" arrivalLane="E5_0" arrivalPos="300.00" arrivalSpeed="13.04" duration="2141.00" routeLength="10003.87" waitingTime="1314.00" waitingCount="3" stopTime="0.00" timeLoss="1419.17" rerouteNo="0" devices="tripinfo_f_0.2" vType="car_0" speedFactor="1.01" vaporized=""/>
    <tripinfo id="f_0.3" depart="240.00" departLane="E0_0" departPos="7.20" departSpeed="0.00" departDelay="0.00" arrival="2303.00" arrivalLane="E5_0" arrivalPos="300.00" arrivalSpeed="13.66" duration="2063.00" routeLength="10003.87" waitingTime="1241.00" waitingCount="2" stopTime="0.00" timeLoss="1341.63" rerouteNo="0" devices="tripinfo_f_0.3" vType="car_0" speedFactor="1.04" vaporized=""/>
    <tripinfo id="f_0.4" depart="320.00" departLane="E0_0" departPos="7.20" departSpeed="0.00" departDelay="0.00" arrival="2305.00" arrivalLane="E5_0" arrivalPos="300.00" arrivalSpeed="13.39" duration="1985.00" routeLength="10003.87" waitingTime="1178.00" waitingCount="2" stopTime="0.00" timeLoss="1263.39" rerouteNo="0" devices="tripinfo_f_0.4" vType="car_0" speedFactor="1.02" vaporized=""/>
    <tripinfo id="f_0.5" depart="400.00" departLane="E0_0" departPos="7.20" departSpeed="0.00" departDelay="0.00" arrival="3093.00" arrivalLane="E5_0" arrivalPos="300.00" arrivalSpeed="11.83" duration="2693.00" routeLength="10003.87" waitingTime="1809.00" waitingCount="3" stopTime="0.00" timeLoss="1904.48" rerouteNo="0" devices="tripinfo_f_0.5" vType="car_0" speedFactor="0.92" vaporized=""/>
    <tripinfo id="f_0.6" depart="480.00" departLane="E0_0" departPos="7.20" departSpeed="0.00" departDelay="0.00" arrival="3095.00" arrivalLane="E5_0" arrivalPos="300.00" arrivalSpeed="13.41" duration="2615.00" routeLength="10003.87" waitingTime="1732.00" waitingCount="5" stopTime="0.00" timeLoss="1893.17" rerouteNo="0" devices="tripinfo_f_0.6" vType="car_0" speedFactor="1.02" vaporized=""/>
    <tripinfo id="f_0.7" depart="560.00" departLane="E0_0" departPos="7.20" departSpeed="0.00" departDelay="0.00" arrival="3097.00" arrivalLane="E5_0" arrivalPos="300.00" arrivalSpeed="12.98" duration="2537.00" routeLength="10003.87" waitingTime="1650.00" waitingCount="5" stopTime="0.00" timeLoss="1771.62" rerouteNo="0" devices="tripinfo_f_0.7" vType="car_0" speedFactor="0.94" vaporized=""/>
    <tripinfo id="f_0.8" depart="640.00" departLane="E0_0" departPos="7.20" departSpeed="0.00" departDelay="0.00" arrival="3099.00" arrivalLane="E5_0" arrivalPos="300.00" arrivalSpeed="12.84" duration="2459.00" routeLength="10003.87" waitingTime="1571.00" waitingCount="4" stopTime="0.00" timeLoss="1713.35" rerouteNo="0" devices="tripinfo_f_0.8" vType="car_0" speedFactor="0.97" vaporized=""/>
    <tripinfo id="f_0.9" depart="720.00" departLane="E0_0" departPos="7.20" departSpeed="0.00" departDelay="0.00" arrival="3859.00" arrivalLane="E5_0" arrivalPos="300.00" arrivalSpeed="12.16" duration="3139.00" routeLength="10003.87" waitingTime="2250.00" waitingCount="6" stopTime="0.00" timeLoss="2361.90" rerouteNo="0" devices="tripinfo_f_0.9" vType="car_0" speedFactor="0.93" vaporized=""/>
    <tripinfo id="f_0.10" depart="800.00" departLane="E0_0" departPos="7.20" departSpeed="0.00" departDelay="0.00" arrival="3861.00" arrivalLane="E5_0" arrivalPos="300.00" arrivalSpeed="13.19" duration="3061.00" routeLength="10003.87" waitingTime="2184.00" waitingCount="4" stopTime="0.00" timeLoss="2339.17" rerouteNo="0" devices="tripinfo_f_0.10" vType="car_0" speedFactor="1.05" vaporized=""/>
    <tripinfo id="f_0.11" depart="880.00" departLane="E0_0" departPos="7.20" departSpeed="0.00" departDelay="0.00" arrival="3863.00" arrivalLane="E5_0" arrivalPos="300.00" arrivalSpeed="13.07" duration="2983.00" routeLength="10003.87" waitingTime="2105.00" waitingCount="5" stopTime="0.00" timeLoss="2261.00" rerouteNo="0" devices="tripinfo_f_0.11" vType="car_0" speedFactor="1.01" vaporized=""/>
    <tripinfo id="f_0.12" depart="960.00" departLane="E0_0" departPos="7.20" departSpeed="0.00" departDelay="0.00" arrival="3865.00" arrivalLane="E5_0" arrivalPos="300.00" arrivalSpeed="12.86" duration="2905.00" routeLength="10003.87" waitingTime="2024.00" waitingCount="5" stopTime="0.00" timeLoss="2183.03" rerouteNo="0" devices="tripinfo_f_0.12" vType="car_0" speedFactor="1.02" vaporized=""/>
    <tripinfo id="f_0.13" depart="1040.00" departLane="E0_0" departPos="7.20" departSpeed="0.00" departDelay="0.00" arrival="3866.00" arrivalLane="E5_0" arrivalPos="300.00" arrivalSpeed="13.66" duration="2826.00" routeLength="10003.87" waitingTime="1945.00" waitingCount="5" stopTime="0.00" timeLoss="2104.61" rerouteNo="0" devices="tripinfo_f_0.13" vType="car_0" speedFactor="1.06" vaporized=""/>
    <tripinfo id="f_0.14" depart="1120.00" departLane="E0_0" departPos="7.20" departSpeed="0.00" departDelay="0.00" arrival="4604.00" arrivalLane="E5_0" arrivalPos="300.00" arrivalSpeed="12.98" duration="3484.00" routeLength="10003.87" waitingTime="2648.00" waitingCount="6" stopTime="0.00" timeLoss="2759.53" rerouteNo="0" devices="tripinfo_f_0.14" vType="car_0" speedFactor="1.00" vaporized=""/>
    <tripinfo id="f_0.15" depart="1200.00" departLane="E0_0" departPos="7.20" departSpeed="0.00" departDelay="0.00" arrival="4619.00" arrivalLane="E5_0" arrivalPos="300.00" arrivalSpeed="12.97" duration="3419.00" routeLength="10003.87" waitingTime="2558.00" waitingCount="8" stopTime="0.00" timeLoss="2669.81" rerouteNo="0" devices="tripinfo_f_0.15" vType="car_0" speedFactor="0.96" vaporized=""/>
    <tripinfo id="f_0.16" depart="1280.00" departLane="E0_0" departPos="7.20" departSpeed="0.00" departDelay="0.00" arrival="4630.00" arrivalLane="E5_0" arrivalPos="300.00" arrivalSpeed="11.88" duration="3350.00" routeLength="10003.87" waitingTime="2469.00" waitingCount="7" stopTime="0.00" timeLoss="2581.32" rerouteNo="0" devices="tripinfo_f_0.16" vType="car_0" speedFactor="0.94" vaporized=""/>
    <tripinfo id="f_0.17" depart="1360.00" departLane="E0_0" departPos="7.20" departSpeed="0.00" departDelay="0.00" arrival="4632.00" arrivalLane="E5_0" arrivalPos="300.00" arrivalSpeed="12.49" duration="3272.00" routeLength="10003.87" waitingTime="2389.00" waitingCount="9" stopTime="0.00" timeLoss="2528.04" rerouteNo="0" devices="tripinfo_f_0.17" vType="car_0" speedFactor="0.97" vaporized=""/>
    <tripinfo id="f_0.18" depart="1440.00" departLane="E0_0" departPos="7.20" departSpeed="0.00" departDelay="0.00" arrival="4634.00" arrivalLane="E5_0" arrivalPos="300.00" arrivalSpeed="13.16" duration="3194.00" routeLength="10003.87" waitingTime="2308.00" waitingCount="6" stopTime="0.00" timeLoss="2447.44" rerouteNo="0" devices="tripinfo_f_0.18" vType="car_0" speedFactor="0.97" vaporized=""/>
    <tripinfo id="f_0.19" depart="1520.00" departLane="E0_0" departPos="7.20" departSpeed="0.00" departDelay="0.00" arrival="5371.00" arrivalLane="E5_0" arrivalPos="300.00" arrivalSpeed="13.87" duration="3851.00" routeLength="10003.87" waitingTime="2995.00" waitingCount="9" stopTime="0.00" timeLoss="3129.66" rerouteNo="0" devices="tripinfo_f_0.19" vType="car_0" speedFactor="1.08" vaporized=""/>
    <tripinfo id="f_0.20" depart="1600.00" departLane="E0_0" departPos="7.20" departSpeed="0.00" departDelay="0.00" arrival="5375.00" arrivalLane="E5_0" arrivalPos="300.00" arrivalSpeed="12.65" duration="3775.00" routeLength="10003.87" waitingTime="2928.00" waitingCount="5" stopTime="0.00" timeLoss="3053.63" rerouteNo="0" devices="tripinfo_f_0.20" vType="car_0" speedFactor="1.01" vaporized=""/>
    <tripinfo id="f_0.21" depart="1680.00" departLane="E0_0" departPos="7.20" departSpeed="0.00" departDelay="0.00" arrival="5378.00" arrivalLane="E5_0" arrivalPos="300.00" arrivalSpeed="12.81" duration="3698.00" routeLength="10003.87" waitingTime="2859.00" waitingCount="8" stopTime="0.00" timeLoss="2975.91" rerouteNo="0" devices="tripinfo_f_0.21" vType="car_0" speedFactor="1.01" vaporized=""/>
    <tripinfo id="f_0.22" depart="1760.00" departLane="E0_0" departPos="7.20" departSpeed="0.00" departDelay="0.00" arrival="5387.00" arrivalLane="E5_0" arrivalPos="300.00" arrivalSpeed="13.68" duration="3627.00" routeLength="10003.87" waitingTime="2778.00" waitingCount="10" stopTime="0.00" timeLoss="2896.46" rerouteNo="0" devices="tripinfo_f_0.22" vType="car_0" speedFactor="0.99" vaporized=""/>
    <tripinfo id="f_0.23" depart="1840.00" departLane="E0_0" departPos="7.20" departSpeed="0.00" departDelay="0.00" arrival="6162.00" arrivalLane="E5_0" arrivalPos="300.00" arrivalSpeed="12.41" duration="4322.00" routeLength="10003.87" waitingTime="3441.00" waitingCount="10" stopTime="0.00" timeLoss="3558.08" rerouteNo="0" devices="tripinfo_f_0.23" vType="car_0" speedFactor="0.94" vaporized=""/>
    <tripinfo id="f_0.24" depart="1920.00" departLane="E0_0" departPos="7.20" departSpeed="0.00" departDelay="0.00" arrival="6179.00" arrivalLane="E5_0" arrivalPos="300.00" arrivalSpeed="12.02" duration="4259.00" routeLength="10003.87" waitingTime="3338.00" waitingCount="10" stopTime="0.00" timeLoss="3468.35" rerouteNo="0" devices="tripinfo_f_0.24" vType="car_0" speedFactor="0.91" vaporized=""/>
    <tripinfo id="f_0.25" depart="2000.00" departLane="E0_0" departPos="7.20" departSpeed="0.00" departDelay="0.00" arrival="6181.00" arrivalLane="E5_0" arrivalPos="300.00" arrivalSpeed="11.82" duration="4181.00" routeLength="10003.87" waitingTime="3257.00" waitingCount="10" stopTime="0.00" timeLoss="3410.57" rerouteNo="0" devices="tripinfo_f_0.25" vType="car_0" speedFactor="0.94" vaporized=""/>
    <tripinfo id="f_0.26" depart="2080.00" departLane="E0_0" departPos="7.20" departSpeed="0.00" departDelay="0.00" arrival="6183.00" arrivalLane="E5_0" arrivalPos="300.00" arrivalSpeed="12.46" duration="4103.00" routeLength="10003.87" waitingTime="3178.00" waitingCount="10" stopTime="0.00" timeLoss="3349.99" rerouteNo="0" devices="tripinfo_f_0.26" vType="car_0" speedFactor="0.96" vaporized=""/>
    <tripinfo id="f_0.27" depart="2160.00" departLane="E0_0" departPos="7.20" departSpeed="0.00" departDelay="0.00" arrival="6185.00" arrivalLane="E5_0" arrivalPos="300.00" arrivalSpeed="13.24" duration="4025.00" routeLength="10003.87" waitingTime="3094.00" waitingCount="11" stopTime="0.00" timeLoss="3284.52" rerouteNo="0" devices="tripinfo_f_0.27" vType="car_0" speedFactor="0.97" vaporized=""/>
    <tripinfo id="f_0.28" depart="2240.00" departLane="E0_0" departPos="7.20" departSpeed="0.00" departDelay="0.00" arrival="6909.00" arrivalLane="E5_0" arrivalPos="300.00" arrivalSpeed="13.64" duration="4669.00" routeLength="10003.87" waitingTime="3795.00" waitingCount="14" stopTime="0.00" timeLoss="3947.25" rerouteNo="0" devices="tripinfo_f_0.28" vType="car_0" speedFactor="1.07" vaporized=""/>
    <tripinfo id="f_0.29" depart="2320.00" departLane="E0_0" departPos="7.20" departSpeed="0.00" departDelay="0.00" arrival="6925.00" arrivalLane="E5_0" arrivalPos="300.00" arrivalSpeed="12.37" duration="4605.00" routeLength="10003.87" waitingTime="3712.00" waitingCount="11" stopTime="0.00" timeLoss="3857.18" rerouteNo="0" devices="tripinfo_f_0.29" vType="car_0" speedFactor="0.97" vaporized=""/>
    <tripinfo id="f_0.30" depart="2400.00" departLane="E0_0" departPos="7.20" departSpeed="0.00" departDelay="0.00" arrival="6927.00" arrivalLane="E5_0" arrivalPos="300.00" arrivalSpeed="12.87" duration="4527.00" routeLength="10003.87" waitingTime="3648.00" waitingCount="14" stopTime="0.00" timeLoss="3805.31" rerouteNo="0" devices="tripinfo_f_0.30" vType="car_0" speedFactor="1.09" vaporized=""/>
    <tripinfo id="f_0.31" depart="2480.00" departLane="E0_0" departPos="7.20" departSpeed="0.00" departDelay="0.00" arrival="6929.00" arrivalLane="E5_0" arrivalPos="300.00" arrivalSpeed="13.29" duration="4449.00" routeLength="10003.87" waitingTime="3564.00" waitingCount="12" stopTime="0.00" timeLoss="3727.01" rerouteNo="0" devices="tripinfo_f_0.31" vType="car_0" speedFactor="1.08" vaporized=""/>
    <tripinfo id="f_0.32" depart="2560.00" departLane="E0_0" departPos="7.20" departSpeed="0.00" departDelay="0.00" arrival="6931.00" arrivalLane="E5_0" arrivalPos="300.00" arrivalSpeed="13.31" duration="4371.00" routeLength="10003.87" waitingTime="3484.00" waitingCount="13" stopTime="0.00" timeLoss="3649.15" rerouteNo="0" devices="tripinfo_f_0.32" vType="car_0" speedFactor="1.00" vaporized=""/>
    <tripinfo id="f_0.33" depart="2640.00" departLane="E0_0" departPos="7.20" departSpeed="0.00" departDelay="0.00" arrival="7681.00" arrivalLane="E5_0" arrivalPos="300.00" arrivalSpeed="13.32" duration="5041.00" routeLength="10003.87" waitingTime="4176.00" waitingCount="14" stopTime="0.00" timeLoss="4318.62" rerouteNo="0" devices="tripinfo_f_0.33" vType="car_0" speedFactor="1.09" vaporized=""/>
    <tripinfo id="f_0.34" depart="2720.00" departLane="E0_0" departPos="7.20" departSpeed="0.00" departDelay="0.00" arrival="7685.00" arrivalLane="E5_0" arrivalPos="300.00" arrivalSpeed="12.95" duration="4965.00" routeLength="10003.87" waitingTime="4089.00" waitingCount="14" stopTime="0.00" timeLoss="4241.68" rerouteNo="0" devices="tripinfo_f_0.34" vType="car_0" speedFactor="1.00" vaporized=""/>
    <tripinfo id="f_0.35" depart="2800.00" departLane="E0_0" departPos="7.20" departSpeed="0.00" departDelay="0.00" arrival="7689.00" arrivalLane="E5_0" arrivalPos="300.00" arrivalSpeed="13.34" duration="4889.00" routeLength="10003.87" waitingTime="4010.00" waitingCount="14" stopTime="0.00" timeLoss="4166.40" rerouteNo="0" devices="tripinfo_f_0.35" vType="car_0" speedFactor="1.01" vaporized=""/>
    <tripinfo id="f_0.36" depart="2880.00" departLane="E0_0" departPos="7.20" departSpeed="0.00" departDelay="0.00" arrival="7695.00" arrivalLane="E5_0" arrivalPos="300.00" arrivalSpeed="13.51" duration="4815.00" routeLength="10003.87" waitingTime="3930.00" waitingCount="14" stopTime="0.00" timeLoss="4082.49" rerouteNo="0" devices="tripinfo_f_0.36" vType="car_0" speedFactor="0.99" vaporized=""/>
    <tripinfo id="f_0.37" depart="2960.00" departLane="E0_0" departPos="7.20" departSpeed="0.00" departDelay="0.00" arrival="8451.00" arrivalLane="E5_0" arrivalPos="300.00" arrivalSpeed="13.65" duration="5491.00" routeLength="10003.87" waitingTime="4602.00" waitingCount="16" stopTime="0.00" timeLoss="4769.31" rerouteNo="0" devices="tripinfo_f_0.37" vType="car_0" speedFactor="1.09" vaporized=""/>
    <tripinfo id="f_0.38" depart="3040.00" departLane="E0_0" departPos="7.20" departSpeed="0.00" departDelay="0.00" arrival="8454.00" arrivalLane="E5_0" arrivalPos="300.00" arrivalSpeed="13.20" duration="5414.00" routeLength="10003.87" waitingTime="4530.00" waitingCount="19" stopTime="0.00" timeLoss="4692.80" rerouteNo="0" devices="tripinfo_f_0.38" vType="car_0" speedFactor="1.05" vaporized=""/>
    <tripinfo id="f_0.39" depart="3120.00" departLane="E0_0" departPos="7.20" departSpeed="0.00" departDelay="0.00" arrival="8477.00" arrivalLane="E5_0" arrivalPos="300.00" arrivalSpeed="12.63" duration="5357.00" routeLength="10003.87" waitingTime="4449.00" waitingCount="16" stopTime="0.00" timeLoss="4597.49" rerouteNo="0" devices="tripinfo_f_0.39" vType="car_0" speedFactor="0.95" vaporized=""/>
    <tripinfo id="f_0.40" depart="3200.00" departLane="E0_0" departPos="7.20" departSpeed="0.00" departDelay="0.00" arrival="8479.00" arrivalLane="E5_0" arrivalPos="300.00" arrivalSpeed="13.39" duration="5279.00" routeLength="10003.87" waitingTime="4369.00" waitingCount="15" stopTime="0.00" timeLoss="4556.89" rerouteNo="0" devices="tripinfo_f_0.40" vType="car_0" speedFactor="1.02" vaporized=""/>
    <tripinfo id="f_0.41" depart="3280.00" departLane="E0_0" departPos="7.20" departSpeed="0.00" departDelay="0.00" arrival="9229.00" arrivalLane="E5_0" arrivalPos="300.00" arrivalSpeed="13.21" duration="5949.00" routeLength="10003.87" waitingTime="5039.00" waitingCount="17" stopTime="0.00" timeLoss="5211.74" rerouteNo="0" devices="tripinfo_f_0.41" vType="car_0" speedFactor="0.98" vaporized=""/>
    <tripinfo id="f_0.42" depart="3360.00" departLane="E0_0" departPos="7.20" departSpeed="0.00" departDelay="0.00" arrival="9231.00" arrivalLane="E5_0" arrivalPos="300.00" arrivalSpeed="12.86" duration="5871.00" routeLength="10003.87" waitingTime="4953.00" waitingCount="20" stopTime="0.00" timeLoss="5149.57" rerouteNo="0" devices="tripinfo_f_0.42" vType="car_0" speedFactor="1.05" vaporized=""/>
    <tripinfo id="f_0.43" depart="3440.00" departLane="E0_0" departPos="7.20" departSpeed="0.00" departDelay="0.00" arrival="9233.00" arrivalLane="E5_0" arrivalPos="300.00" arrivalSpeed="13.22" duration="5793.00" routeLength="10003.87" waitingTime="4888.00" waitingCount="18" stopTime="0.00" timeLoss="5071.43" rerouteNo="0" devices="tripinfo_f_0.43" vType="car_0" speedFactor="1.02" vaporized=""/>
    <tripinfo id="f_0.44" depart="3520.00" departLane="E0_0" departPos="7.20" departSpeed="0.00" departDelay="0.00" arrival="9235.00" arrivalLane="E5_0" arrivalPos="300.00" arrivalSpeed="13.33" duration="5715.00" routeLength="10003.87" waitingTime="4813.00" waitingCount="18" stopTime="0.00" timeLoss="4993.39" rerouteNo="0" devices="tripinfo_f_0.44" vType="car_0" speedFactor="1.02" vaporized=""/>
</tripinfos>
