<?xml version="1.0" encoding="UTF-8"?>

<!-- generated on 2025-01-09 14:01:41 by Eclipse SUMO sumo Version v1_20_0+0085-e155ab8699b
<configuration xmlns:xsi="http://www.w3.org/2001/XMLSchema-instance" xsi:noNamespaceSchemaLocation="http://sumo.dlr.de/xsd/sumoConfiguration.xsd">

    <input>
        <net-file value="/home/jian/sumo/project/rayRL/one_way_xml/one_way.net.xml"/>
        <route-files value="/home/jian/sumo/project/rayRL/one_way_xml/one_way.rou.xml"/>
    </input>

    <output>
        <output-prefix value="46-"/>
        <tripinfo-output value="/home/jian/sumo/project/rayRL/one_way_xml/data/default/tripinfo/tripinfo-output.xml"/>
    </output>

    <time>
        <step-length value="1.0"/>
    </time>

    <processing>
        <step-method.ballistic value="True"/>
    </processing>

    <report>
        <no-warnings value="True"/>
        <no-step-log value="True"/>
    </report>

    <traci_server>
        <remote-port value="55429"/>
    </traci_server>

    <gui_only>
        <quit-on-end value="True"/>
        <start value="True"/>
    </gui_only>

</configuration>
-->

<tripinfos xmlns:xsi="http://www.w3.org/2001/XMLSchema-instance" xsi:noNamespaceSchemaLocation="http://sumo.dlr.de/xsd/tripinfo_file.xsd">
    <tripinfo id="f_0.0" depart="0.00" departLane="E0_0" departPos="7.20" departSpeed="0.00" departDelay="0.00" arrival="1519.00" arrivalLane="E5_0" arrivalPos="300.00" arrivalSpeed="13.45" duration="1519.00" routeLength="10003.87" waitingTime="736.00" waitingCount="1" stopTime="0.00" timeLoss="797.05" rerouteNo="0" devices="tripinfo_f_0.0" vType="car_0" speedFactor="1.03" vaporized=""/>
    <tripinfo id="f_0.1" depart="79.00" departLane="E0_0" departPos="7.20" departSpeed="0.00" departDelay="0.74" arrival="2301.00" arrivalLane="E5_0" arrivalPos="300.00" arrivalSpeed="13.46" duration="2222.00" routeLength="10003.87" waitingTime="1396.00" waitingCount="2" stopTime="0.00" timeLoss="1477.18" rerouteNo="0" devices="tripinfo_f_0.1" vType="car_0" speedFactor="0.97" vaporized=""/>
    <tripinfo id="f_0.2" depart="157.00" departLane="E0_0" departPos="7.20" departSpeed="0.00" departDelay="0.48" arrival="2303.00" arrivalLane="E5_0" arrivalPos="300.00" arrivalSpeed="13.04" duration="2146.00" routeLength="10003.87" waitingTime="1320.00" waitingCount="2" stopTime="0.00" timeLoss="1424.12" rerouteNo="0" devices="tripinfo_f_0.2" vType="car_0" speedFactor="1.01" vaporized=""/>
    <tripinfo id="f_0.3" depart="235.00" departLane="E0_0" departPos="7.20" departSpeed="0.00" departDelay="0.22" arrival="2305.00" arrivalLane="E5_0" arrivalPos="300.00" arrivalSpeed="13.66" duration="2070.00" routeLength="10003.87" waitingTime="1242.00" waitingCount="2" stopTime="0.00" timeLoss="1348.36" rerouteNo="0" devices="tripinfo_f_0.3" vType="car_0" speedFactor="1.04" vaporized=""/>
    <tripinfo id="f_0.4" depart="314.00" departLane="E0_0" departPos="7.20" departSpeed="0.00" departDelay="0.96" arrival="2307.00" arrivalLane="E5_0" arrivalPos="300.00" arrivalSpeed="13.39" duration="1993.00" routeLength="10003.87" waitingTime="1162.00" waitingCount="2" stopTime="0.00" timeLoss="1270.65" rerouteNo="0" devices="tripinfo_f_0.4" vType="car_0" speedFactor="1.02" vaporized=""/>
    <tripinfo id="f_0.5" depart="392.00" departLane="E0_0" departPos="7.20" departSpeed="0.00" departDelay="0.70" arrival="3093.00" arrivalLane="E5_0" arrivalPos="300.00" arrivalSpeed="11.72" duration="2701.00" routeLength="10003.87" waitingTime="1818.00" waitingCount="4" stopTime="0.00" timeLoss="1912.98" rerouteNo="0" devices="tripinfo_f_0.5" vType="car_0" speedFactor="0.92" vaporized=""/>
    <tripinfo id="f_0.6" depart="470.00" departLane="E0_0" departPos="7.20" departSpeed="0.00" departDelay="0.43" arrival="3095.00" arrivalLane="E5_0" arrivalPos="300.00" arrivalSpeed="13.00" duration="2625.00" routeLength="10003.87" waitingTime="1739.00" waitingCount="5" stopTime="0.00" timeLoss="1903.46" rerouteNo="0" devices="tripinfo_f_0.6" vType="car_0" speedFactor="1.02" vaporized=""/>
    <tripinfo id="f_0.7" depart="548.00" departLane="E0_0" departPos="7.20" departSpeed="0.00" departDelay="0.17" arrival="3097.00" arrivalLane="E5_0" arrivalPos="300.00" arrivalSpeed="12.83" duration="2549.00" routeLength="10003.87" waitingTime="1660.00" waitingCount="3" stopTime="0.00" timeLoss="1783.99" rerouteNo="0" devices="tripinfo_f_0.7" vType="car_0" speedFactor="0.94" vaporized=""/>
    <tripinfo id="f_0.8" depart="627.00" departLane="E0_0" departPos="7.20" departSpeed="0.00" departDelay="0.91" arrival="3099.00" arrivalLane="E5_0" arrivalPos="300.00" arrivalSpeed="13.01" duration="2472.00" routeLength="10003.87" waitingTime="1579.00" waitingCount="4" stopTime="0.00" timeLoss="1726.61" rerouteNo="0" devices="tripinfo_f_0.8" vType="car_0" speedFactor="0.97" vaporized=""/>
    <tripinfo id="f_0.9" depart="705.00" departLane="E0_0" departPos="7.20" departSpeed="0.00" departDelay="0.65" arrival="3101.00" arrivalLane="E5_0" arrivalPos="300.00" arrivalSpeed="12.56" duration="2396.00" routeLength="10003.87" waitingTime="1498.00" waitingCount="4" stopTime="0.00" timeLoss="1618.43" rerouteNo="0" devices="tripinfo_f_0.9" vType="car_0" speedFactor="0.93" vaporized=""/>
    <tripinfo id="f_0.10" depart="783.00" departLane="E0_0" departPos="7.20" departSpeed="0.00" departDelay="0.39" arrival="3831.00" arrivalLane="E5_0" arrivalPos="300.00" arrivalSpeed="13.36" duration="3048.00" routeLength="10003.87" waitingTime="2231.00" waitingCount="3" stopTime="0.00" timeLoss="2326.29" rerouteNo="0" devices="tripinfo_f_0.10" vType="car_0" speedFactor="1.05" vaporized=""/>
    <tripinfo id="f_0.11" depart="861.00" departLane="E0_0" departPos="7.20" departSpeed="0.00" departDelay="0.13" arrival="3833.00" arrivalLane="E5_0" arrivalPos="300.00" arrivalSpeed="13.07" duration="2972.00" routeLength="10003.87" waitingTime="2155.00" waitingCount="3" stopTime="0.00" timeLoss="2250.14" rerouteNo="0" devices="tripinfo_f_0.11" vType="car_0" speedFactor="1.01" vaporized=""/>
    <tripinfo id="f_0.12" depart="940.00" departLane="E0_0" departPos="7.20" departSpeed="0.00" departDelay="0.87" arrival="3835.00" arrivalLane="E5_0" arrivalPos="300.00" arrivalSpeed="13.66" duration="2895.00" routeLength="10003.87" waitingTime="2072.00" waitingCount="3" stopTime="0.00" timeLoss="2173.53" rerouteNo="0" devices="tripinfo_f_0.12" vType="car_0" speedFactor="1.02" vaporized=""/>
    <tripinfo id="f_0.13" depart="1018.00" departLane="E0_0" departPos="7.20" departSpeed="0.00" departDelay="0.61" arrival="3839.00" arrivalLane="E5_0" arrivalPos="300.00" arrivalSpeed="13.53" duration="2821.00" routeLength="10003.87" waitingTime="1995.00" waitingCount="3" stopTime="0.00" timeLoss="2098.97" rerouteNo="0" devices="tripinfo_f_0.13" vType="car_0" speedFactor="1.06" vaporized=""/>
    <tripinfo id="f_0.14" depart="1096.00" departLane="E0_0" departPos="7.20" departSpeed="0.00" departDelay="0.35" arrival="3843.00" arrivalLane="E5_0" arrivalPos="300.00" arrivalSpeed="12.53" duration="2747.00" routeLength="10003.87" waitingTime="1921.00" waitingCount="6" stopTime="0.00" timeLoss="2022.35" rerouteNo="0" devices="tripinfo_f_0.14" vType="car_0" speedFactor="1.00" vaporized=""/>
    <tripinfo id="f_0.15" depart="1174.00" departLane="E0_0" departPos="7.20" departSpeed="0.00" departDelay="0.09" arrival="4615.00" arrivalLane="E5_0" arrivalPos="300.00" arrivalSpeed="13.28" duration="3441.00" routeLength="10003.87" waitingTime="2586.00" waitingCount="6" stopTime="0.00" timeLoss="2692.10" rerouteNo="0" devices="tripinfo_f_0.15" vType="car_0" speedFactor="0.96" vaporized=""/>
    <tripinfo id="f_0.16" depart="1253.00" departLane="E0_0" departPos="7.20" departSpeed="0.00" departDelay="0.82" arrival="4627.00" arrivalLane="E5_0" arrivalPos="300.00" arrivalSpeed="13.02" duration="3374.00" routeLength="10003.87" waitingTime="2498.00" waitingCount="6" stopTime="0.00" timeLoss="2606.13" rerouteNo="0" devices="tripinfo_f_0.16" vType="car_0" speedFactor="0.94" vaporized=""/>
    <tripinfo id="f_0.17" depart="1331.00" departLane="E0_0" departPos="7.20" departSpeed="0.00" departDelay="0.56" arrival="4629.00" arrivalLane="E5_0" arrivalPos="300.00" arrivalSpeed="12.57" duration="3298.00" routeLength="10003.87" waitingTime="2416.00" waitingCount="5" stopTime="0.00" timeLoss="2554.18" rerouteNo="0" devices="tripinfo_f_0.17" vType="car_0" speedFactor="0.97" vaporized=""/>
    <tripinfo id="f_0.18" depart="1409.00" departLane="E0_0" departPos="7.20" departSpeed="0.00" departDelay="0.30" arrival="4631.00" arrivalLane="E5_0" arrivalPos="300.00" arrivalSpeed="12.28" duration="3222.00" routeLength="10003.87" waitingTime="2339.00" waitingCount="7" stopTime="0.00" timeLoss="2477.04" rerouteNo="0" devices="tripinfo_f_0.18" vType="car_0" speedFactor="0.97" vaporized=""/>
    <tripinfo id="f_0.19" depart="1487.00" departLane="E0_0" departPos="7.20" departSpeed="0.00" departDelay="0.04" arrival="5370.00" arrivalLane="E5_0" arrivalPos="300.00" arrivalSpeed="13.51" duration="3883.00" routeLength="10003.87" waitingTime="3006.00" waitingCount="7" stopTime="0.00" timeLoss="3161.13" rerouteNo="0" devices="tripinfo_f_0.19" vType="car_0" speedFactor="1.08" vaporized=""/>
    <tripinfo id="f_0.20" depart="1566.00" departLane="E0_0" departPos="7.20" departSpeed="0.00" departDelay="0.78" arrival="5374.00" arrivalLane="E5_0" arrivalPos="300.00" arrivalSpeed="12.77" duration="3808.00" routeLength="10003.87" waitingTime="2966.00" waitingCount="6" stopTime="0.00" timeLoss="3085.99" rerouteNo="0" devices="tripinfo_f_0.20" vType="car_0" speedFactor="1.01" vaporized=""/>
    <tripinfo id="f_0.21" depart="1644.00" departLane="E0_0" departPos="7.20" departSpeed="0.00" departDelay="0.52" arrival="5376.00" arrivalLane="E5_0" arrivalPos="300.00" arrivalSpeed="12.62" duration="3732.00" routeLength="10003.87" waitingTime="2884.00" waitingCount="7" stopTime="0.00" timeLoss="3009.61" rerouteNo="0" devices="tripinfo_f_0.21" vType="car_0" speedFactor="1.01" vaporized=""/>
    <tripinfo id="f_0.22" depart="1722.00" departLane="E0_0" departPos="7.20" departSpeed="0.00" departDelay="0.26" arrival="5384.00" arrivalLane="E5_0" arrivalPos="300.00" arrivalSpeed="13.48" duration="3662.00" routeLength="10003.87" waitingTime="2815.00" waitingCount="5" stopTime="0.00" timeLoss="2931.47" rerouteNo="0" devices="tripinfo_f_0.22" vType="car_0" speedFactor="0.99" vaporized=""/>
    <tripinfo id="f_0.23" depart="1801.00" departLane="E0_0" departPos="7.20" departSpeed="0.00" departDelay="1.00" arrival="6162.00" arrivalLane="E5_0" arrivalPos="300.00" arrivalSpeed="12.09" duration="4361.00" routeLength="10003.87" waitingTime="3475.00" waitingCount="7" stopTime="0.00" timeLoss="3597.64" rerouteNo="0" devices="tripinfo_f_0.23" vType="car_0" speedFactor="0.94" vaporized=""/>
    <tripinfo id="f_0.24" depart="1879.00" departLane="E0_0" departPos="7.20" departSpeed="0.00" departDelay="0.74" arrival="6178.00" arrivalLane="E5_0" arrivalPos="300.00" arrivalSpeed="11.70" duration="4299.00" routeLength="10003.87" waitingTime="3377.00" waitingCount="8" stopTime="0.00" timeLoss="3508.50" rerouteNo="0" devices="tripinfo_f_0.24" vType="car_0" speedFactor="0.91" vaporized=""/>
    <tripinfo id="f_0.25" depart="1957.00" departLane="E0_0" departPos="7.20" departSpeed="0.00" departDelay="0.48" arrival="6180.00" arrivalLane="E5_0" arrivalPos="300.00" arrivalSpeed="11.79" duration="4223.00" routeLength="10003.87" waitingTime="3319.00" waitingCount="6" stopTime="0.00" timeLoss="3452.65" rerouteNo="0" devices="tripinfo_f_0.25" vType="car_0" speedFactor="0.94" vaporized=""/>
    <tripinfo id="f_0.26" depart="2035.00" departLane="E0_0" departPos="7.20" departSpeed="0.00" departDelay="0.21" arrival="6182.00" arrivalLane="E5_0" arrivalPos="300.00" arrivalSpeed="11.79" duration="4147.00" routeLength="10003.87" waitingTime="3239.00" waitingCount="8" stopTime="0.00" timeLoss="3394.90" rerouteNo="0" devices="tripinfo_f_0.26" vType="car_0" speedFactor="0.96" vaporized=""/>
    <tripinfo id="f_0.27" depart="2114.00" departLane="E0_0" departPos="7.20" departSpeed="0.00" departDelay="0.95" arrival="6184.00" arrivalLane="E5_0" arrivalPos="300.00" arrivalSpeed="12.09" duration="4070.00" routeLength="10003.87" waitingTime="3159.00" waitingCount="9" stopTime="0.00" timeLoss="3329.92" rerouteNo="0" devices="tripinfo_f_0.27" vType="car_0" speedFactor="0.97" vaporized=""/>
    <tripinfo id="f_0.28" depart="2192.00" departLane="E0_0" departPos="7.20" departSpeed="0.00" departDelay="0.69" arrival="6910.00" arrivalLane="E5_0" arrivalPos="300.00" arrivalSpeed="13.07" duration="4718.00" routeLength="10003.87" waitingTime="3850.00" waitingCount="9" stopTime="0.00" timeLoss="3996.73" rerouteNo="0" devices="tripinfo_f_0.28" vType="car_0" speedFactor="1.07" vaporized=""/>
    <tripinfo id="f_0.29" depart="2270.00" departLane="E0_0" departPos="7.20" departSpeed="0.00" departDelay="0.43" arrival="6926.00" arrivalLane="E5_0" arrivalPos="300.00" arrivalSpeed="12.96" duration="4656.00" routeLength="10003.87" waitingTime="3762.00" waitingCount="8" stopTime="0.00" timeLoss="3908.53" rerouteNo="0" devices="tripinfo_f_0.29" vType="car_0" speedFactor="0.97" vaporized=""/>
    <tripinfo id="f_0.30" depart="2348.00" departLane="E0_0" departPos="7.20" departSpeed="0.00" departDelay="0.17" arrival="6928.00" arrivalLane="E5_0" arrivalPos="300.00" arrivalSpeed="12.75" duration="4580.00" routeLength="10003.87" waitingTime="3705.00" waitingCount="7" stopTime="0.00" timeLoss="3858.41" rerouteNo="0" devices="tripinfo_f_0.30" vType="car_0" speedFactor="1.09" vaporized=""/>
    <tripinfo id="f_0.31" depart="2427.00" departLane="E0_0" departPos="7.20" departSpeed="0.00" departDelay="0.91" arrival="6930.00" arrivalLane="E5_0" arrivalPos="300.00" arrivalSpeed="13.69" duration="4503.00" routeLength="10003.87" waitingTime="3624.00" waitingCount="8" stopTime="0.00" timeLoss="3781.33" rerouteNo="0" devices="tripinfo_f_0.31" vType="car_0" speedFactor="1.08" vaporized=""/>
    <tripinfo id="f_0.32" depart="2505.00" departLane="E0_0" departPos="7.20" departSpeed="0.00" departDelay="0.65" arrival="6932.00" arrivalLane="E5_0" arrivalPos="300.00" arrivalSpeed="12.84" duration="4427.00" routeLength="10003.87" waitingTime="3540.00" waitingCount="7" stopTime="0.00" timeLoss="3705.32" rerouteNo="0" devices="tripinfo_f_0.32" vType="car_0" speedFactor="1.00" vaporized=""/>
    <tripinfo id="f_0.33" depart="2583.00" departLane="E0_0" departPos="7.20" departSpeed="0.00" departDelay="0.39" arrival="7681.00" arrivalLane="E5_0" arrivalPos="300.00" arrivalSpeed="13.71" duration="5098.00" routeLength="10003.87" waitingTime="4235.00" waitingCount="10" stopTime="0.00" timeLoss="4376.65" rerouteNo="0" devices="tripinfo_f_0.33" vType="car_0" speedFactor="1.09" vaporized=""/>
    <tripinfo id="f_0.34" depart="2661.00" departLane="E0_0" departPos="7.20" departSpeed="0.00" departDelay="0.13" arrival="7688.00" arrivalLane="E5_0" arrivalPos="300.00" arrivalSpeed="13.46" duration="5027.00" routeLength="10003.87" waitingTime="4149.00" waitingCount="11" stopTime="0.00" timeLoss="4303.29" rerouteNo="0" devices="tripinfo_f_0.34" vType="car_0" speedFactor="1.00" vaporized=""/>
    <tripinfo id="f_0.35" depart="2740.00" departLane="E0_0" departPos="7.20" departSpeed="0.00" departDelay="0.87" arrival="7690.00" arrivalLane="E5_0" arrivalPos="300.00" arrivalSpeed="13.30" duration="4950.00" routeLength="10003.87" waitingTime="4070.00" waitingCount="16" stopTime="0.00" timeLoss="4228.41" rerouteNo="0" devices="tripinfo_f_0.35" vType="car_0" speedFactor="1.01" vaporized=""/>
    <tripinfo id="f_0.36" depart="2818.00" departLane="E0_0" departPos="7.20" departSpeed="0.00" departDelay="0.60" arrival="7695.00" arrivalLane="E5_0" arrivalPos="300.00" arrivalSpeed="13.51" duration="4877.00" routeLength="10003.87" waitingTime="3991.00" waitingCount="12" stopTime="0.00" timeLoss="4145.12" rerouteNo="0" devices="tripinfo_f_0.36" vType="car_0" speedFactor="0.99" vaporized=""/>
    <tripinfo id="f_0.37" depart="2896.00" departLane="E0_0" departPos="7.20" departSpeed="0.00" departDelay="0.34" arrival="7697.00" arrivalLane="E5_0" arrivalPos="300.00" arrivalSpeed="13.88" duration="4801.00" routeLength="10003.87" waitingTime="3911.00" waitingCount="13" stopTime="0.00" timeLoss="4079.38" rerouteNo="0" devices="tripinfo_f_0.37" vType="car_0" speedFactor="1.09" vaporized=""/>
    <tripinfo id="f_0.38" depart="2974.00" departLane="E0_0" departPos="7.20" departSpeed="0.00" departDelay="0.08" arrival="8453.00" arrivalLane="E5_0" arrivalPos="300.00" arrivalSpeed="13.49" duration="5479.00" routeLength="10003.87" waitingTime="4587.00" waitingCount="14" stopTime="0.00" timeLoss="4757.49" rerouteNo="0" devices="tripinfo_f_0.38" vType="car_0" speedFactor="1.05" vaporized=""/>
    <tripinfo id="f_0.39" depart="3053.00" departLane="E0_0" departPos="7.20" departSpeed="0.00" departDelay="0.82" arrival="8474.00" arrivalLane="E5_0" arrivalPos="300.00" arrivalSpeed="13.15" duration="5421.00" routeLength="10003.87" waitingTime="4504.00" waitingCount="16" stopTime="0.00" timeLoss="4661.40" rerouteNo="0" devices="tripinfo_f_0.39" vType="car_0" speedFactor="0.95" vaporized=""/>
    <tripinfo id="f_0.40" depart="3131.00" departLane="E0_0" departPos="7.20" departSpeed="0.00" departDelay="0.56" arrival="8476.00" arrivalLane="E5_0" arrivalPos="300.00" arrivalSpeed="13.49" duration="5345.00" routeLength="10003.87" waitingTime="4436.00" waitingCount="9" stopTime="0.00" timeLoss="4622.93" rerouteNo="0" devices="tripinfo_f_0.40" vType="car_0" speedFactor="1.02" vaporized=""/>
    <tripinfo id="f_0.41" depart="3209.00" departLane="E0_0" departPos="7.20" departSpeed="0.00" departDelay="0.30" arrival="8478.00" arrivalLane="E5_0" arrivalPos="300.00" arrivalSpeed="13.51" duration="5269.00" routeLength="10003.87" waitingTime="4356.00" waitingCount="11" stopTime="0.00" timeLoss="4531.12" rerouteNo="0" devices="tripinfo_f_0.41" vType="car_0" speedFactor="0.98" vaporized=""/>
    <tripinfo id="f_0.42" depart="3287.00" departLane="E0_0" departPos="7.20" departSpeed="0.00" departDelay="0.04" arrival="9219.00" arrivalLane="E5_0" arrivalPos="300.00" arrivalSpeed="13.07" duration="5932.00" routeLength="10003.87" waitingTime="5031.00" waitingCount="13" stopTime="0.00" timeLoss="5210.98" rerouteNo="0" devices="tripinfo_f_0.42" vType="car_0" speedFactor="1.05" vaporized=""/>
    <tripinfo id="f_0.43" depart="3366.00" departLane="E0_0" departPos="7.20" departSpeed="0.00" departDelay="0.78" arrival="9222.00" arrivalLane="E5_0" arrivalPos="300.00" arrivalSpeed="13.40" duration="5856.00" routeLength="10003.87" waitingTime="4969.00" waitingCount="14" stopTime="0.00" timeLoss="5134.67" rerouteNo="0" devices="tripinfo_f_0.43" vType="car_0" speedFactor="1.02" vaporized=""/>
    <tripinfo id="f_0.44" depart="3444.00" departLane="E0_0" departPos="7.20" departSpeed="0.00" departDelay="0.52" arrival="9225.00" arrivalLane="E5_0" arrivalPos="300.00" arrivalSpeed="13.12" duration="5781.00" routeLength="10003.87" waitingTime="4885.00" waitingCount="13" stopTime="0.00" timeLoss="5059.20" rerouteNo="0" devices="tripinfo_f_0.44" vType="car_0" speedFactor="1.02" vaporized=""/>
    <tripinfo id="f_0.45" depart="3522.00" departLane="E0_0" departPos="7.20" departSpeed="0.00" departDelay="0.26" arrival="9231.00" arrivalLane="E5_0" arrivalPos="300.00" arrivalSpeed="12.80" duration="5709.00" routeLength="10003.87" waitingTime="4814.00" waitingCount="19" stopTime="0.00" timeLoss="4987.43" rerouteNo="0" devices="tripinfo_f_0.45" vType="car_0" speedFactor="1.04" vaporized=""/>
</tripinfos>
