<?xml version="1.0" encoding="UTF-8"?>

<!-- generated on 2025-01-09 14:01:46 by Eclipse SUMO sumo Version v1_20_0+0085-e155ab8699b
<configuration xmlns:xsi="http://www.w3.org/2001/XMLSchema-instance" xsi:noNamespaceSchemaLocation="http://sumo.dlr.de/xsd/sumoConfiguration.xsd">

    <input>
        <net-file value="/home/jian/sumo/project/rayRL/one_way_xml/one_way.net.xml"/>
        <route-files value="/home/jian/sumo/project/rayRL/one_way_xml/one_way.rou.xml"/>
    </input>

    <output>
        <output-prefix value="47-"/>
        <tripinfo-output value="/home/jian/sumo/project/rayRL/one_way_xml/data/default/tripinfo/tripinfo-output.xml"/>
    </output>

    <time>
        <step-length value="1.0"/>
    </time>

    <processing>
        <step-method.ballistic value="True"/>
    </processing>

    <report>
        <no-warnings value="True"/>
        <no-step-log value="True"/>
    </report>

    <traci_server>
        <remote-port value="53079"/>
    </traci_server>

    <gui_only>
        <quit-on-end value="True"/>
        <start value="True"/>
    </gui_only>

</configuration>
-->

<tripinfos xmlns:xsi="http://www.w3.org/2001/XMLSchema-instance" xsi:noNamespaceSchemaLocation="http://sumo.dlr.de/xsd/tripinfo_file.xsd">
    <tripinfo id="f_0.0" depart="0.00" departLane="E0_0" departPos="7.20" departSpeed="0.00" departDelay="0.00" arrival="1519.00" arrivalLane="E5_0" arrivalPos="300.00" arrivalSpeed="13.45" duration="1519.00" routeLength="10003.87" waitingTime="736.00" waitingCount="1" stopTime="0.00" timeLoss="796.34" rerouteNo="0" devices="tripinfo_f_0.0" vType="car_0" speedFactor="1.03" vaporized=""/>
    <tripinfo id="f_0.1" depart="77.00" departLane="E0_0" departPos="7.20" departSpeed="0.00" departDelay="0.40" arrival="2303.00" arrivalLane="E5_0" arrivalPos="300.00" arrivalSpeed="13.17" duration="2226.00" routeLength="10003.87" waitingTime="1399.00" waitingCount="2" stopTime="0.00" timeLoss="1481.42" rerouteNo="0" devices="tripinfo_f_0.1" vType="car_0" speedFactor="0.97" vaporized=""/>
    <tripinfo id="f_0.2" depart="154.00" departLane="E0_0" departPos="7.20" departSpeed="0.00" departDelay="0.81" arrival="2305.00" arrivalLane="E5_0" arrivalPos="300.00" arrivalSpeed="12.95" duration="2151.00" routeLength="10003.87" waitingTime="1318.00" waitingCount="2" stopTime="0.00" timeLoss="1429.07" rerouteNo="0" devices="tripinfo_f_0.2" vType="car_0" speedFactor="1.01" vaporized=""/>
    <tripinfo id="f_0.3" depart="230.00" departLane="E0_0" departPos="7.20" departSpeed="0.00" departDelay="0.21" arrival="2307.00" arrivalLane="E5_0" arrivalPos="300.00" arrivalSpeed="12.80" duration="2077.00" routeLength="10003.87" waitingTime="1245.00" waitingCount="2" stopTime="0.00" timeLoss="1354.74" rerouteNo="0" devices="tripinfo_f_0.3" vType="car_0" speedFactor="1.04" vaporized=""/>
    <tripinfo id="f_0.4" depart="307.00" departLane="E0_0" departPos="7.20" departSpeed="0.00" departDelay="0.62" arrival="2309.00" arrivalLane="E5_0" arrivalPos="300.00" arrivalSpeed="13.22" duration="2002.00" routeLength="10003.87" waitingTime="1184.00" waitingCount="4" stopTime="0.00" timeLoss="1279.96" rerouteNo="0" devices="tripinfo_f_0.4" vType="car_0" speedFactor="1.02" vaporized=""/>
    <tripinfo id="f_0.5" depart="383.00" departLane="E0_0" departPos="7.20" departSpeed="0.00" departDelay="0.02" arrival="3092.00" arrivalLane="E5_0" arrivalPos="300.00" arrivalSpeed="11.67" duration="2709.00" routeLength="10003.87" waitingTime="1826.00" waitingCount="5" stopTime="0.00" timeLoss="1920.48" rerouteNo="0" devices="tripinfo_f_0.5" vType="car_0" speedFactor="0.92" vaporized=""/>
    <tripinfo id="f_0.6" depart="460.00" departLane="E0_0" departPos="7.20" departSpeed="0.00" departDelay="0.42" arrival="3094.00" arrivalLane="E5_0" arrivalPos="300.00" arrivalSpeed="13.26" duration="2634.00" routeLength="10003.87" waitingTime="1751.00" waitingCount="4" stopTime="0.00" timeLoss="1911.55" rerouteNo="0" devices="tripinfo_f_0.6" vType="car_0" speedFactor="1.02" vaporized=""/>
    <tripinfo id="f_0.7" depart="537.00" departLane="E0_0" departPos="7.20" departSpeed="0.00" departDelay="0.83" arrival="3096.00" arrivalLane="E5_0" arrivalPos="300.00" arrivalSpeed="12.57" duration="2559.00" routeLength="10003.87" waitingTime="1671.00" waitingCount="6" stopTime="0.00" timeLoss="1793.06" rerouteNo="0" devices="tripinfo_f_0.7" vType="car_0" speedFactor="0.94" vaporized=""/>
    <tripinfo id="f_0.8" depart="613.00" departLane="E0_0" departPos="7.20" departSpeed="0.00" departDelay="0.23" arrival="3841.00" arrivalLane="E5_0" arrivalPos="300.00" arrivalSpeed="12.20" duration="3228.00" routeLength="10003.87" waitingTime="2381.00" waitingCount="6" stopTime="0.00" timeLoss="2483.11" rerouteNo="0" devices="tripinfo_f_0.8" vType="car_0" speedFactor="0.97" vaporized=""/>
    <tripinfo id="f_0.9" depart="690.00" departLane="E0_0" departPos="7.20" departSpeed="0.00" departDelay="0.64" arrival="3860.00" arrivalLane="E5_0" arrivalPos="300.00" arrivalSpeed="12.21" duration="3170.00" routeLength="10003.87" waitingTime="2286.00" waitingCount="6" stopTime="0.00" timeLoss="2392.17" rerouteNo="0" devices="tripinfo_f_0.9" vType="car_0" speedFactor="0.93" vaporized=""/>
    <tripinfo id="f_0.10" depart="766.00" departLane="E0_0" departPos="7.20" departSpeed="0.00" departDelay="0.04" arrival="3862.00" arrivalLane="E5_0" arrivalPos="300.00" arrivalSpeed="12.73" duration="3096.00" routeLength="10003.87" waitingTime="2223.00" waitingCount="5" stopTime="0.00" timeLoss="2374.32" rerouteNo="0" devices="tripinfo_f_0.10" vType="car_0" speedFactor="1.05" vaporized=""/>
    <tripinfo id="f_0.11" depart="843.00" departLane="E0_0" departPos="7.20" departSpeed="0.00" departDelay="0.44" arrival="3864.00" arrivalLane="E5_0" arrivalPos="300.00" arrivalSpeed="12.79" duration="3021.00" routeLength="10003.87" waitingTime="2148.00" waitingCount="3" stopTime="0.00" timeLoss="2298.39" rerouteNo="0" devices="tripinfo_f_0.11" vType="car_0" speedFactor="1.01" vaporized=""/>
    <tripinfo id="f_0.12" depart="920.00" departLane="E0_0" departPos="7.20" departSpeed="0.00" departDelay="0.85" arrival="3866.00" arrivalLane="E5_0" arrivalPos="300.00" arrivalSpeed="12.87" duration="2946.00" routeLength="10003.87" waitingTime="2094.00" waitingCount="3" stopTime="0.00" timeLoss="2224.11" rerouteNo="0" devices="tripinfo_f_0.12" vType="car_0" speedFactor="1.02" vaporized=""/>
    <tripinfo id="f_0.13" depart="996.00" departLane="E0_0" departPos="7.20" departSpeed="0.00" departDelay="0.25" arrival="4600.00" arrivalLane="E5_0" arrivalPos="300.00" arrivalSpeed="12.80" duration="3604.00" routeLength="10003.87" waitingTime="2764.00" waitingCount="4" stopTime="0.00" timeLoss="2881.88" rerouteNo="0" devices="tripinfo_f_0.13" vType="car_0" speedFactor="1.06" vaporized=""/>
    <tripinfo id="f_0.14" depart="1073.00" departLane="E0_0" departPos="7.20" departSpeed="0.00" departDelay="0.66" arrival="4603.00" arrivalLane="E5_0" arrivalPos="300.00" arrivalSpeed="13.31" duration="3530.00" routeLength="10003.87" waitingTime="2693.00" waitingCount="7" stopTime="0.00" timeLoss="2804.96" rerouteNo="0" devices="tripinfo_f_0.14" vType="car_0" speedFactor="1.00" vaporized=""/>
    <tripinfo id="f_0.15" depart="1149.00" departLane="E0_0" departPos="7.20" departSpeed="0.00" departDelay="0.06" arrival="4619.00" arrivalLane="E5_0" arrivalPos="300.00" arrivalSpeed="12.29" duration="3470.00" routeLength="10003.87" waitingTime="2610.00" waitingCount="5" stopTime="0.00" timeLoss="2720.62" rerouteNo="0" devices="tripinfo_f_0.15" vType="car_0" speedFactor="0.96" vaporized=""/>
    <tripinfo id="f_0.16" depart="1226.00" departLane="E0_0" departPos="7.20" departSpeed="0.00" departDelay="0.46" arrival="4630.00" arrivalLane="E5_0" arrivalPos="300.00" arrivalSpeed="12.45" duration="3404.00" routeLength="10003.87" waitingTime="2521.00" waitingCount="5" stopTime="0.00" timeLoss="2635.45" rerouteNo="0" devices="tripinfo_f_0.16" vType="car_0" speedFactor="0.94" vaporized=""/>
    <tripinfo id="f_0.17" depart="1303.00" departLane="E0_0" departPos="7.20" departSpeed="0.00" departDelay="0.87" arrival="5385.00" arrivalLane="E5_0" arrivalPos="300.00" arrivalSpeed="13.33" duration="4082.00" routeLength="10003.87" waitingTime="3215.00" waitingCount="7" stopTime="0.00" timeLoss="3337.83" rerouteNo="0" devices="tripinfo_f_0.17" vType="car_0" speedFactor="0.97" vaporized=""/>
    <tripinfo id="f_0.18" depart="1379.00" departLane="E0_0" departPos="7.20" departSpeed="0.00" departDelay="0.27" arrival="5388.00" arrivalLane="E5_0" arrivalPos="300.00" arrivalSpeed="13.03" duration="4009.00" routeLength="10003.87" waitingTime="3131.00" waitingCount="10" stopTime="0.00" timeLoss="3263.53" rerouteNo="0" devices="tripinfo_f_0.18" vType="car_0" speedFactor="0.97" vaporized=""/>
    <tripinfo id="f_0.19" depart="1456.00" departLane="E0_0" departPos="7.20" departSpeed="0.00" departDelay="0.68" arrival="5390.00" arrivalLane="E5_0" arrivalPos="300.00" arrivalSpeed="12.83" duration="3934.00" routeLength="10003.87" waitingTime="3052.00" waitingCount="9" stopTime="0.00" timeLoss="3211.68" rerouteNo="0" devices="tripinfo_f_0.19" vType="car_0" speedFactor="1.08" vaporized=""/>
    <tripinfo id="f_0.20" depart="1532.00" departLane="E0_0" departPos="7.20" departSpeed="0.00" departDelay="0.08" arrival="5392.00" arrivalLane="E5_0" arrivalPos="300.00" arrivalSpeed="13.17" duration="3860.00" routeLength="10003.87" waitingTime="2971.00" waitingCount="12" stopTime="0.00" timeLoss="3138.12" rerouteNo="0" devices="tripinfo_f_0.20" vType="car_0" speedFactor="1.01" vaporized=""/>
    <tripinfo id="f_0.21" depart="1609.00" departLane="E0_0" departPos="7.20" departSpeed="0.00" departDelay="0.48" arrival="6138.00" arrivalLane="E5_0" arrivalPos="300.00" arrivalSpeed="12.76" duration="4529.00" routeLength="10003.87" waitingTime="3669.00" waitingCount="12" stopTime="0.00" timeLoss="3807.49" rerouteNo="0" devices="tripinfo_f_0.21" vType="car_0" speedFactor="1.01" vaporized=""/>
    <tripinfo id="f_0.22" depart="1686.00" departLane="E0_0" departPos="7.20" departSpeed="0.00" departDelay="0.89" arrival="6148.00" arrivalLane="E5_0" arrivalPos="300.00" arrivalSpeed="13.24" duration="4462.00" routeLength="10003.87" waitingTime="3593.00" waitingCount="11" stopTime="0.00" timeLoss="3730.61" rerouteNo="0" devices="tripinfo_f_0.22" vType="car_0" speedFactor="0.99" vaporized=""/>
    <tripinfo id="f_0.23" depart="1762.00" departLane="E0_0" departPos="7.20" departSpeed="0.00" departDelay="0.29" arrival="6167.00" arrivalLane="E5_0" arrivalPos="300.00" arrivalSpeed="12.30" duration="4405.00" routeLength="10003.87" waitingTime="3504.00" waitingCount="12" stopTime="0.00" timeLoss="3641.55" rerouteNo="0" devices="tripinfo_f_0.23" vType="car_0" speedFactor="0.94" vaporized=""/>
    <tripinfo id="f_0.24" depart="1839.00" departLane="E0_0" departPos="7.20" departSpeed="0.00" departDelay="0.70" arrival="6184.00" arrivalLane="E5_0" arrivalPos="300.00" arrivalSpeed="11.63" duration="4345.00" routeLength="10003.87" waitingTime="3414.00" waitingCount="12" stopTime="0.00" timeLoss="3554.99" rerouteNo="0" devices="tripinfo_f_0.24" vType="car_0" speedFactor="0.91" vaporized=""/>
    <tripinfo id="f_0.25" depart="1915.00" departLane="E0_0" departPos="7.20" departSpeed="0.00" departDelay="0.10" arrival="6933.00" arrivalLane="E5_0" arrivalPos="300.00" arrivalSpeed="12.25" duration="5018.00" routeLength="10003.87" waitingTime="4093.00" waitingCount="18" stopTime="0.00" timeLoss="4246.73" rerouteNo="0" devices="tripinfo_f_0.25" vType="car_0" speedFactor="0.94" vaporized=""/>
    <tripinfo id="f_0.26" depart="1992.00" departLane="E0_0" departPos="7.20" departSpeed="0.00" departDelay="0.50" arrival="6935.00" arrivalLane="E5_0" arrivalPos="300.00" arrivalSpeed="12.11" duration="4943.00" routeLength="10003.87" waitingTime="4033.00" waitingCount="15" stopTime="0.00" timeLoss="4190.26" rerouteNo="0" devices="tripinfo_f_0.26" vType="car_0" speedFactor="0.96" vaporized=""/>
    <tripinfo id="f_0.27" depart="2069.00" departLane="E0_0" departPos="7.20" departSpeed="0.00" departDelay="0.91" arrival="6937.00" arrivalLane="E5_0" arrivalPos="300.00" arrivalSpeed="13.19" duration="4868.00" routeLength="10003.87" waitingTime="3955.00" waitingCount="15" stopTime="0.00" timeLoss="4126.56" rerouteNo="0" devices="tripinfo_f_0.27" vType="car_0" speedFactor="0.97" vaporized=""/>
    <tripinfo id="f_0.28" depart="2145.00" departLane="E0_0" departPos="7.20" departSpeed="0.00" departDelay="0.31" arrival="6939.00" arrivalLane="E5_0" arrivalPos="300.00" arrivalSpeed="13.83" duration="4794.00" routeLength="10003.87" waitingTime="3878.00" waitingCount="14" stopTime="0.00" timeLoss="4072.22" rerouteNo="0" devices="tripinfo_f_0.28" vType="car_0" speedFactor="1.07" vaporized=""/>
    <tripinfo id="f_0.29" depart="2222.00" departLane="E0_0" departPos="7.20" departSpeed="0.00" departDelay="0.72" arrival="6941.00" arrivalLane="E5_0" arrivalPos="300.00" arrivalSpeed="12.68" duration="4719.00" routeLength="10003.87" waitingTime="3809.00" waitingCount="17" stopTime="0.00" timeLoss="3971.58" rerouteNo="0" devices="tripinfo_f_0.29" vType="car_0" speedFactor="0.97" vaporized=""/>
    <tripinfo id="f_0.30" depart="2298.00" departLane="E0_0" departPos="7.20" departSpeed="0.00" departDelay="0.12" arrival="7680.00" arrivalLane="E5_0" arrivalPos="300.00" arrivalSpeed="13.71" duration="5382.00" routeLength="10003.87" waitingTime="4495.00" waitingCount="19" stopTime="0.00" timeLoss="4660.20" rerouteNo="0" devices="tripinfo_f_0.30" vType="car_0" speedFactor="1.09" vaporized=""/>
    <tripinfo id="f_0.31" depart="2375.00" departLane="E0_0" departPos="7.20" departSpeed="0.00" departDelay="0.52" arrival="7682.00" arrivalLane="E5_0" arrivalPos="300.00" arrivalSpeed="13.89" duration="5307.00" routeLength="10003.87" waitingTime="4432.00" waitingCount="15" stopTime="0.00" timeLoss="4584.79" rerouteNo="0" devices="tripinfo_f_0.31" vType="car_0" speedFactor="1.08" vaporized=""/>
    <tripinfo id="f_0.32" depart="2452.00" departLane="E0_0" departPos="7.20" departSpeed="0.00" departDelay="0.93" arrival="7686.00" arrivalLane="E5_0" arrivalPos="300.00" arrivalSpeed="12.76" duration="5234.00" routeLength="10003.87" waitingTime="4358.00" waitingCount="14" stopTime="0.00" timeLoss="4512.19" rerouteNo="0" devices="tripinfo_f_0.32" vType="car_0" speedFactor="1.00" vaporized=""/>
    <tripinfo id="f_0.33" depart="2528.00" departLane="E0_0" departPos="7.20" departSpeed="0.00" departDelay="0.33" arrival="7688.00" arrivalLane="E5_0" arrivalPos="300.00" arrivalSpeed="13.49" duration="5160.00" routeLength="10003.87" waitingTime="4276.00" waitingCount="16" stopTime="0.00" timeLoss="4438.57" rerouteNo="0" devices="tripinfo_f_0.33" vType="car_0" speedFactor="1.09" vaporized=""/>
    <tripinfo id="f_0.34" depart="2605.00" departLane="E0_0" departPos="7.20" departSpeed="0.00" departDelay="0.74" arrival="7691.00" arrivalLane="E5_0" arrivalPos="300.00" arrivalSpeed="13.57" duration="5086.00" routeLength="10003.87" waitingTime="4204.00" waitingCount="15" stopTime="0.00" timeLoss="4362.74" rerouteNo="0" devices="tripinfo_f_0.34" vType="car_0" speedFactor="1.00" vaporized=""/>
    <tripinfo id="f_0.35" depart="2681.00" departLane="E0_0" departPos="7.20" departSpeed="0.00" departDelay="0.14" arrival="7694.00" arrivalLane="E5_0" arrivalPos="300.00" arrivalSpeed="13.18" duration="5013.00" routeLength="10003.87" waitingTime="4123.00" waitingCount="15" stopTime="0.00" timeLoss="4291.05" rerouteNo="0" devices="tripinfo_f_0.35" vType="car_0" speedFactor="1.01" vaporized=""/>
    <tripinfo id="f_0.36" depart="2758.00" departLane="E0_0" departPos="7.20" departSpeed="0.00" departDelay="0.54" arrival="8457.00" arrivalLane="E5_0" arrivalPos="300.00" arrivalSpeed="12.78" duration="5699.00" routeLength="10003.87" waitingTime="4793.00" waitingCount="18" stopTime="0.00" timeLoss="4967.46" rerouteNo="0" devices="tripinfo_f_0.36" vType="car_0" speedFactor="0.99" vaporized=""/>
    <tripinfo id="f_0.37" depart="2835.00" departLane="E0_0" departPos="7.20" departSpeed="0.00" departDelay="0.95" arrival="8459.00" arrivalLane="E5_0" arrivalPos="300.00" arrivalSpeed="12.87" duration="5624.00" routeLength="10003.87" waitingTime="4714.00" waitingCount="19" stopTime="0.00" timeLoss="4902.48" rerouteNo="0" devices="tripinfo_f_0.37" vType="car_0" speedFactor="1.09" vaporized=""/>
    <tripinfo id="f_0.38" depart="2911.00" departLane="E0_0" departPos="7.20" departSpeed="0.00" departDelay="0.35" arrival="8462.00" arrivalLane="E5_0" arrivalPos="300.00" arrivalSpeed="13.43" duration="5551.00" routeLength="10003.87" waitingTime="4637.00" waitingCount="15" stopTime="0.00" timeLoss="4828.95" rerouteNo="0" devices="tripinfo_f_0.38" vType="car_0" speedFactor="1.05" vaporized=""/>
    <tripinfo id="f_0.39" depart="2988.00" departLane="E0_0" departPos="7.20" departSpeed="0.00" departDelay="0.76" arrival="9238.00" arrivalLane="E5_0" arrivalPos="300.00" arrivalSpeed="12.38" duration="6250.00" routeLength="10003.87" waitingTime="5311.00" waitingCount="17" stopTime="0.00" timeLoss="5490.92" rerouteNo="0" devices="tripinfo_f_0.39" vType="car_0" speedFactor="0.95" vaporized=""/>
    <tripinfo id="f_0.40" depart="3064.00" departLane="E0_0" departPos="7.20" departSpeed="0.00" departDelay="0.16" arrival="9240.00" arrivalLane="E5_0" arrivalPos="300.00" arrivalSpeed="13.88" duration="6176.00" routeLength="10003.87" waitingTime="5235.00" waitingCount="24" stopTime="0.00" timeLoss="5454.85" rerouteNo="0" devices="tripinfo_f_0.40" vType="car_0" speedFactor="1.02" vaporized=""/>
    <tripinfo id="f_0.41" depart="3141.00" departLane="E0_0" departPos="7.20" departSpeed="0.00" departDelay="0.56" arrival="9242.00" arrivalLane="E5_0" arrivalPos="300.00" arrivalSpeed="13.12" duration="6101.00" routeLength="10003.87" waitingTime="5178.00" waitingCount="19" stopTime="0.00" timeLoss="5364.15" rerouteNo="0" devices="tripinfo_f_0.41" vType="car_0" speedFactor="0.98" vaporized=""/>
    <tripinfo id="f_0.42" depart="3218.00" departLane="E0_0" departPos="7.20" departSpeed="0.00" departDelay="0.97" arrival="9244.00" arrivalLane="E5_0" arrivalPos="300.00" arrivalSpeed="13.36" duration="6026.00" routeLength="10003.87" waitingTime="5098.00" waitingCount="19" stopTime="0.00" timeLoss="5304.51" rerouteNo="0" devices="tripinfo_f_0.42" vType="car_0" speedFactor="1.05" vaporized=""/>
    <tripinfo id="f_0.43" depart="3294.00" departLane="E0_0" departPos="7.20" departSpeed="0.00" departDelay="0.37" arrival="9246.00" arrivalLane="E5_0" arrivalPos="300.00" arrivalSpeed="12.87" duration="5952.00" routeLength="10003.87" waitingTime="5033.00" waitingCount="16" stopTime="0.00" timeLoss="5230.47" rerouteNo="0" devices="tripinfo_f_0.43" vType="car_0" speedFactor="1.02" vaporized=""/>
    <tripinfo id="f_0.44" depart="3371.00" departLane="E0_0" departPos="7.20" departSpeed="0.00" departDelay="0.78" arrival="9989.00" arrivalLane="E5_0" arrivalPos="300.00" arrivalSpeed="13.45" duration="6618.00" routeLength="10003.87" waitingTime="5716.00" waitingCount="20" stopTime="0.00" timeLoss="5896.74" rerouteNo="0" devices="tripinfo_f_0.44" vType="car_0" speedFactor="1.02" vaporized=""/>
    <tripinfo id="f_0.45" depart="3447.00" departLane="E0_0" departPos="7.20" departSpeed="0.00" departDelay="0.18" arrival="9992.00" arrivalLane="E5_0" arrivalPos="300.00" arrivalSpeed="13.49" duration="6545.00" routeLength="10003.87" waitingTime="5637.00" waitingCount="21" stopTime="0.00" timeLoss="5823.55" rerouteNo="0" devices="tripinfo_f_0.45" vType="car_0" speedFactor="1.04" vaporized=""/>
    <tripinfo id="f_0.46" depart="3524.00" departLane="E0_0" departPos="7.20" departSpeed="0.00" departDelay="0.58" arrival="9997.00" arrivalLane="E5_0" arrivalPos="300.00" arrivalSpeed="13.73" duration="6473.00" routeLength="10003.87" waitingTime="5553.00" waitingCount="17" stopTime="0.00" timeLoss="5750.68" rerouteNo="0" devices="tripinfo_f_0.46" vType="car_0" speedFactor="1.00" vaporized=""/>
</tripinfos>
