<?xml version="1.0" encoding="UTF-8"?>

<!-- generated on 2025-01-09 14:02:17 by Eclipse SUMO sumo Version v1_20_0+0085-e155ab8699b
<configuration xmlns:xsi="http://www.w3.org/2001/XMLSchema-instance" xsi:noNamespaceSchemaLocation="http://sumo.dlr.de/xsd/sumoConfiguration.xsd">

    <input>
        <net-file value="/home/jian/sumo/project/rayRL/one_way_xml/one_way.net.xml"/>
        <route-files value="/home/jian/sumo/project/rayRL/one_way_xml/one_way.rou.xml"/>
    </input>

    <output>
        <output-prefix value="49-"/>
        <tripinfo-output value="/home/jian/sumo/project/rayRL/one_way_xml/data/default/tripinfo/tripinfo-output.xml"/>
    </output>

    <time>
        <step-length value="1.0"/>
    </time>

    <processing>
        <step-method.ballistic value="True"/>
    </processing>

    <report>
        <no-warnings value="True"/>
        <no-step-log value="True"/>
    </report>

    <traci_server>
        <remote-port value="56761"/>
    </traci_server>

    <gui_only>
        <quit-on-end value="True"/>
        <start value="True"/>
    </gui_only>

</configuration>
-->

<tripinfos xmlns:xsi="http://www.w3.org/2001/XMLSchema-instance" xsi:noNamespaceSchemaLocation="http://sumo.dlr.de/xsd/tripinfo_file.xsd">
    <tripinfo id="f_0.0" depart="0.00" departLane="E0_0" departPos="7.20" departSpeed="0.00" departDelay="0.00" arrival="1519.00" arrivalLane="E5_0" arrivalPos="300.00" arrivalSpeed="13.45" duration="1519.00" routeLength="10003.87" waitingTime="736.00" waitingCount="1" stopTime="0.00" timeLoss="796.42" rerouteNo="0" devices="tripinfo_f_0.0" vType="car_0" speedFactor="1.03" vaporized=""/>
    <tripinfo id="f_0.1" depart="74.00" departLane="E0_0" departPos="7.20" departSpeed="0.00" departDelay="0.53" arrival="2301.00" arrivalLane="E5_0" arrivalPos="300.00" arrivalSpeed="13.17" duration="2227.00" routeLength="10003.87" waitingTime="1398.00" waitingCount="2" stopTime="0.00" timeLoss="1482.20" rerouteNo="0" devices="tripinfo_f_0.1" vType="car_0" speedFactor="0.97" vaporized=""/>
    <tripinfo id="f_0.2" depart="147.00" departLane="E0_0" departPos="7.20" departSpeed="0.00" departDelay="0.06" arrival="2303.00" arrivalLane="E5_0" arrivalPos="300.00" arrivalSpeed="12.95" duration="2156.00" routeLength="10003.87" waitingTime="1327.00" waitingCount="2" stopTime="0.00" timeLoss="1434.11" rerouteNo="0" devices="tripinfo_f_0.2" vType="car_0" speedFactor="1.01" vaporized=""/>
    <tripinfo id="f_0.3" depart="221.00" departLane="E0_0" departPos="7.20" departSpeed="0.00" departDelay="0.59" arrival="2305.00" arrivalLane="E5_0" arrivalPos="300.00" arrivalSpeed="12.80" duration="2084.00" routeLength="10003.87" waitingTime="1253.00" waitingCount="2" stopTime="0.00" timeLoss="1361.72" rerouteNo="0" devices="tripinfo_f_0.3" vType="car_0" speedFactor="1.04" vaporized=""/>
    <tripinfo id="f_0.4" depart="294.00" departLane="E0_0" departPos="7.20" departSpeed="0.00" departDelay="0.12" arrival="2307.00" arrivalLane="E5_0" arrivalPos="300.00" arrivalSpeed="13.22" duration="2013.00" routeLength="10003.87" waitingTime="1181.00" waitingCount="2" stopTime="0.00" timeLoss="1291.01" rerouteNo="0" devices="tripinfo_f_0.4" vType="car_0" speedFactor="1.02" vaporized=""/>
    <tripinfo id="f_0.5" depart="368.00" departLane="E0_0" departPos="7.20" departSpeed="0.00" departDelay="0.66" arrival="3092.00" arrivalLane="E5_0" arrivalPos="300.00" arrivalSpeed="11.72" duration="2724.00" routeLength="10003.87" waitingTime="1840.00" waitingCount="4" stopTime="0.00" timeLoss="1935.42" rerouteNo="0" devices="tripinfo_f_0.5" vType="car_0" speedFactor="0.92" vaporized=""/>
    <tripinfo id="f_0.6" depart="441.00" departLane="E0_0" departPos="7.20" departSpeed="0.00" departDelay="0.19" arrival="3094.00" arrivalLane="E5_0" arrivalPos="300.00" arrivalSpeed="13.00" duration="2653.00" routeLength="10003.87" waitingTime="1771.00" waitingCount="5" stopTime="0.00" timeLoss="1930.18" rerouteNo="0" devices="tripinfo_f_0.6" vType="car_0" speedFactor="1.02" vaporized=""/>
    <tripinfo id="f_0.7" depart="515.00" departLane="E0_0" departPos="7.20" departSpeed="0.00" departDelay="0.72" arrival="3096.00" arrivalLane="E5_0" arrivalPos="300.00" arrivalSpeed="12.83" duration="2581.00" routeLength="10003.87" waitingTime="1688.00" waitingCount="4" stopTime="0.00" timeLoss="1814.92" rerouteNo="0" devices="tripinfo_f_0.7" vType="car_0" speedFactor="0.94" vaporized=""/>
    <tripinfo id="f_0.8" depart="588.00" departLane="E0_0" departPos="7.20" departSpeed="0.00" departDelay="0.25" arrival="3098.00" arrivalLane="E5_0" arrivalPos="300.00" arrivalSpeed="13.01" duration="2510.00" routeLength="10003.87" waitingTime="1617.00" waitingCount="4" stopTime="0.00" timeLoss="1764.88" rerouteNo="0" devices="tripinfo_f_0.8" vType="car_0" speedFactor="0.97" vaporized=""/>
    <tripinfo id="f_0.9" depart="662.00" departLane="E0_0" departPos="7.20" departSpeed="0.00" departDelay="0.78" arrival="3100.00" arrivalLane="E5_0" arrivalPos="300.00" arrivalSpeed="12.56" duration="2438.00" routeLength="10003.87" waitingTime="1540.00" waitingCount="5" stopTime="0.00" timeLoss="1660.45" rerouteNo="0" devices="tripinfo_f_0.9" vType="car_0" speedFactor="0.93" vaporized=""/>
    <tripinfo id="f_0.10" depart="735.00" departLane="E0_0" departPos="7.20" departSpeed="0.00" departDelay="0.31" arrival="3832.00" arrivalLane="E5_0" arrivalPos="300.00" arrivalSpeed="13.36" duration="3097.00" routeLength="10003.87" waitingTime="2255.00" waitingCount="5" stopTime="0.00" timeLoss="2374.60" rerouteNo="0" devices="tripinfo_f_0.10" vType="car_0" speedFactor="1.05" vaporized=""/>
    <tripinfo id="f_0.11" depart="809.00" departLane="E0_0" departPos="7.20" departSpeed="0.00" departDelay="0.84" arrival="3834.00" arrivalLane="E5_0" arrivalPos="300.00" arrivalSpeed="13.07" duration="3025.00" routeLength="10003.87" waitingTime="2199.00" waitingCount="3" stopTime="0.00" timeLoss="2303.39" rerouteNo="0" devices="tripinfo_f_0.11" vType="car_0" speedFactor="1.01" vaporized=""/>
    <tripinfo id="f_0.12" depart="882.00" departLane="E0_0" departPos="7.20" departSpeed="0.00" departDelay="0.37" arrival="3836.00" arrivalLane="E5_0" arrivalPos="300.00" arrivalSpeed="13.66" duration="2954.00" routeLength="10003.87" waitingTime="2125.00" waitingCount="4" stopTime="0.00" timeLoss="2232.21" rerouteNo="0" devices="tripinfo_f_0.12" vType="car_0" speedFactor="1.02" vaporized=""/>
    <tripinfo id="f_0.13" depart="956.00" departLane="E0_0" departPos="7.20" departSpeed="0.00" departDelay="0.90" arrival="3840.00" arrivalLane="E5_0" arrivalPos="300.00" arrivalSpeed="13.53" duration="2884.00" routeLength="10003.87" waitingTime="2055.00" waitingCount="5" stopTime="0.00" timeLoss="2162.37" rerouteNo="0" devices="tripinfo_f_0.13" vType="car_0" speedFactor="1.06" vaporized=""/>
    <tripinfo id="f_0.14" depart="1029.00" departLane="E0_0" departPos="7.20" departSpeed="0.00" departDelay="0.43" arrival="3844.00" arrivalLane="E5_0" arrivalPos="300.00" arrivalSpeed="12.53" duration="2815.00" routeLength="10003.87" waitingTime="1985.00" waitingCount="5" stopTime="0.00" timeLoss="2090.32" rerouteNo="0" devices="tripinfo_f_0.14" vType="car_0" speedFactor="1.00" vaporized=""/>
    <tripinfo id="f_0.15" depart="1103.00" departLane="E0_0" departPos="7.20" departSpeed="0.00" departDelay="0.97" arrival="4620.00" arrivalLane="E5_0" arrivalPos="300.00" arrivalSpeed="12.90" duration="3517.00" routeLength="10003.87" waitingTime="2661.00" waitingCount="5" stopTime="0.00" timeLoss="2767.03" rerouteNo="0" devices="tripinfo_f_0.15" vType="car_0" speedFactor="0.96" vaporized=""/>
    <tripinfo id="f_0.16" depart="1176.00" departLane="E0_0" departPos="7.20" departSpeed="0.00" departDelay="0.50" arrival="4633.00" arrivalLane="E5_0" arrivalPos="300.00" arrivalSpeed="12.73" duration="3457.00" routeLength="10003.87" waitingTime="2575.00" waitingCount="6" stopTime="0.00" timeLoss="2687.92" rerouteNo="0" devices="tripinfo_f_0.16" vType="car_0" speedFactor="0.94" vaporized=""/>
    <tripinfo id="f_0.17" depart="1249.00" departLane="E0_0" departPos="7.20" departSpeed="0.00" departDelay="0.03" arrival="4635.00" arrivalLane="E5_0" arrivalPos="300.00" arrivalSpeed="12.77" duration="3386.00" routeLength="10003.87" waitingTime="2498.00" waitingCount="7" stopTime="0.00" timeLoss="2642.20" rerouteNo="0" devices="tripinfo_f_0.17" vType="car_0" speedFactor="0.97" vaporized=""/>
    <tripinfo id="f_0.18" depart="1323.00" departLane="E0_0" departPos="7.20" departSpeed="0.00" departDelay="0.56" arrival="5383.00" arrivalLane="E5_0" arrivalPos="300.00" arrivalSpeed="12.75" duration="4060.00" routeLength="10003.87" waitingTime="3174.00" waitingCount="11" stopTime="0.00" timeLoss="3314.19" rerouteNo="0" devices="tripinfo_f_0.18" vType="car_0" speedFactor="0.97" vaporized=""/>
    <tripinfo id="f_0.19" depart="1396.00" departLane="E0_0" departPos="7.20" departSpeed="0.00" departDelay="0.09" arrival="5385.00" arrivalLane="E5_0" arrivalPos="300.00" arrivalSpeed="13.27" duration="3989.00" routeLength="10003.87" waitingTime="3101.00" waitingCount="13" stopTime="0.00" timeLoss="3266.59" rerouteNo="0" devices="tripinfo_f_0.19" vType="car_0" speedFactor="1.08" vaporized=""/>
    <tripinfo id="f_0.20" depart="1470.00" departLane="E0_0" departPos="7.20" departSpeed="0.00" departDelay="0.62" arrival="5387.00" arrivalLane="E5_0" arrivalPos="300.00" arrivalSpeed="12.41" duration="3917.00" routeLength="10003.87" waitingTime="3042.00" waitingCount="10" stopTime="0.00" timeLoss="3195.25" rerouteNo="0" devices="tripinfo_f_0.20" vType="car_0" speedFactor="1.01" vaporized=""/>
    <tripinfo id="f_0.21" depart="1543.00" departLane="E0_0" departPos="7.20" departSpeed="0.00" departDelay="0.15" arrival="5389.00" arrivalLane="E5_0" arrivalPos="300.00" arrivalSpeed="13.87" duration="3846.00" routeLength="10003.87" waitingTime="2973.00" waitingCount="6" stopTime="0.00" timeLoss="3123.93" rerouteNo="0" devices="tripinfo_f_0.21" vType="car_0" speedFactor="1.01" vaporized=""/>
    <tripinfo id="f_0.22" depart="1617.00" departLane="E0_0" departPos="7.20" departSpeed="0.00" departDelay="0.68" arrival="6143.00" arrivalLane="E5_0" arrivalPos="300.00" arrivalSpeed="12.71" duration="4526.00" routeLength="10003.87" waitingTime="3667.00" waitingCount="11" stopTime="0.00" timeLoss="3795.62" rerouteNo="0" devices="tripinfo_f_0.22" vType="car_0" speedFactor="0.99" vaporized=""/>
    <tripinfo id="f_0.23" depart="1690.00" departLane="E0_0" departPos="7.20" departSpeed="0.00" departDelay="0.21" arrival="6164.00" arrivalLane="E5_0" arrivalPos="300.00" arrivalSpeed="12.93" duration="4474.00" routeLength="10003.87" waitingTime="3584.00" waitingCount="11" stopTime="0.00" timeLoss="3710.01" rerouteNo="0" devices="tripinfo_f_0.23" vType="car_0" speedFactor="0.94" vaporized=""/>
    <tripinfo id="f_0.24" depart="1764.00" departLane="E0_0" departPos="7.20" departSpeed="0.00" departDelay="0.74" arrival="6183.00" arrivalLane="E5_0" arrivalPos="300.00" arrivalSpeed="11.89" duration="4419.00" routeLength="10003.87" waitingTime="3494.00" waitingCount="7" stopTime="0.00" timeLoss="3628.45" rerouteNo="0" devices="tripinfo_f_0.24" vType="car_0" speedFactor="0.91" vaporized=""/>
    <tripinfo id="f_0.25" depart="1837.00" departLane="E0_0" departPos="7.20" departSpeed="0.00" departDelay="0.28" arrival="6185.00" arrivalLane="E5_0" arrivalPos="300.00" arrivalSpeed="12.31" duration="4348.00" routeLength="10003.87" waitingTime="3440.00" waitingCount="5" stopTime="0.00" timeLoss="3577.18" rerouteNo="0" devices="tripinfo_f_0.25" vType="car_0" speedFactor="0.94" vaporized=""/>
    <tripinfo id="f_0.26" depart="1911.00" departLane="E0_0" departPos="7.20" departSpeed="0.00" departDelay="0.81" arrival="6187.00" arrivalLane="E5_0" arrivalPos="300.00" arrivalSpeed="12.70" duration="4276.00" routeLength="10003.87" waitingTime="3363.00" waitingCount="8" stopTime="0.00" timeLoss="3522.23" rerouteNo="0" devices="tripinfo_f_0.26" vType="car_0" speedFactor="0.96" vaporized=""/>
    <tripinfo id="f_0.27" depart="1984.00" departLane="E0_0" departPos="7.20" departSpeed="0.00" departDelay="0.34" arrival="6920.00" arrivalLane="E5_0" arrivalPos="300.00" arrivalSpeed="12.51" duration="4936.00" routeLength="10003.87" waitingTime="4040.00" waitingCount="10" stopTime="0.00" timeLoss="4195.69" rerouteNo="0" devices="tripinfo_f_0.27" vType="car_0" speedFactor="0.97" vaporized=""/>
    <tripinfo id="f_0.28" depart="2058.00" departLane="E0_0" departPos="7.20" departSpeed="0.00" departDelay="0.87" arrival="6922.00" arrivalLane="E5_0" arrivalPos="300.00" arrivalSpeed="13.89" duration="4864.00" routeLength="10003.87" waitingTime="3964.00" waitingCount="10" stopTime="0.00" timeLoss="4141.77" rerouteNo="0" devices="tripinfo_f_0.28" vType="car_0" speedFactor="1.07" vaporized=""/>
    <tripinfo id="f_0.29" depart="2131.00" departLane="E0_0" departPos="7.20" departSpeed="0.00" departDelay="0.40" arrival="6930.00" arrivalLane="E5_0" arrivalPos="300.00" arrivalSpeed="12.48" duration="4799.00" routeLength="10003.87" waitingTime="3883.00" waitingCount="12" stopTime="0.00" timeLoss="4051.56" rerouteNo="0" devices="tripinfo_f_0.29" vType="car_0" speedFactor="0.97" vaporized=""/>
    <tripinfo id="f_0.30" depart="2205.00" departLane="E0_0" departPos="7.20" departSpeed="0.00" departDelay="0.93" arrival="6932.00" arrivalLane="E5_0" arrivalPos="300.00" arrivalSpeed="13.44" duration="4727.00" routeLength="10003.87" waitingTime="3835.00" waitingCount="13" stopTime="0.00" timeLoss="4005.24" rerouteNo="0" devices="tripinfo_f_0.30" vType="car_0" speedFactor="1.09" vaporized=""/>
    <tripinfo id="f_0.31" depart="2278.00" departLane="E0_0" departPos="7.20" departSpeed="0.00" departDelay="0.46" arrival="6934.00" arrivalLane="E5_0" arrivalPos="300.00" arrivalSpeed="12.64" duration="4656.00" routeLength="10003.87" waitingTime="3760.00" waitingCount="12" stopTime="0.00" timeLoss="3934.36" rerouteNo="0" devices="tripinfo_f_0.31" vType="car_0" speedFactor="1.08" vaporized=""/>
    <tripinfo id="f_0.32" depart="2352.00" departLane="E0_0" departPos="7.20" departSpeed="0.00" departDelay="0.99" arrival="7680.00" arrivalLane="E5_0" arrivalPos="300.00" arrivalSpeed="13.53" duration="5328.00" routeLength="10003.87" waitingTime="4453.00" waitingCount="12" stopTime="0.00" timeLoss="4606.35" rerouteNo="0" devices="tripinfo_f_0.32" vType="car_0" speedFactor="1.00" vaporized=""/>
    <tripinfo id="f_0.33" depart="2425.00" departLane="E0_0" departPos="7.20" departSpeed="0.00" departDelay="0.52" arrival="7683.00" arrivalLane="E5_0" arrivalPos="300.00" arrivalSpeed="13.61" duration="5258.00" routeLength="10003.87" waitingTime="4369.00" waitingCount="10" stopTime="0.00" timeLoss="4536.38" rerouteNo="0" devices="tripinfo_f_0.33" vType="car_0" speedFactor="1.09" vaporized=""/>
    <tripinfo id="f_0.34" depart="2498.00" departLane="E0_0" departPos="7.20" departSpeed="0.00" departDelay="0.05" arrival="7685.00" arrivalLane="E5_0" arrivalPos="300.00" arrivalSpeed="12.70" duration="5187.00" routeLength="10003.87" waitingTime="4305.00" waitingCount="10" stopTime="0.00" timeLoss="4463.87" rerouteNo="0" devices="tripinfo_f_0.34" vType="car_0" speedFactor="1.00" vaporized=""/>
    <tripinfo id="f_0.35" depart="2572.00" departLane="E0_0" departPos="7.20" departSpeed="0.00" departDelay="0.59" arrival="7691.00" arrivalLane="E5_0" arrivalPos="300.00" arrivalSpeed="13.49" duration="5119.00" routeLength="10003.87" waitingTime="4235.00" waitingCount="13" stopTime="0.00" timeLoss="4396.90" rerouteNo="0" devices="tripinfo_f_0.35" vType="car_0" speedFactor="1.01" vaporized=""/>
    <tripinfo id="f_0.36" depart="2645.00" departLane="E0_0" departPos="7.20" departSpeed="0.00" departDelay="0.12" arrival="7697.00" arrivalLane="E5_0" arrivalPos="300.00" arrivalSpeed="13.11" duration="5052.00" routeLength="10003.87" waitingTime="4155.00" waitingCount="9" stopTime="0.00" timeLoss="4320.62" rerouteNo="0" devices="tripinfo_f_0.36" vType="car_0" speedFactor="0.99" vaporized=""/>
    <tripinfo id="f_0.37" depart="2719.00" departLane="E0_0" departPos="7.20" departSpeed="0.00" departDelay="0.65" arrival="8451.00" arrivalLane="E5_0" arrivalPos="300.00" arrivalSpeed="13.30" duration="5732.00" routeLength="10003.87" waitingTime="4840.00" waitingCount="15" stopTime="0.00" timeLoss="5010.21" rerouteNo="0" devices="tripinfo_f_0.37" vType="car_0" speedFactor="1.09" vaporized=""/>
    <tripinfo id="f_0.38" depart="2792.00" departLane="E0_0" departPos="7.20" departSpeed="0.00" departDelay="0.18" arrival="8454.00" arrivalLane="E5_0" arrivalPos="300.00" arrivalSpeed="13.55" duration="5662.00" routeLength="10003.87" waitingTime="4767.00" waitingCount="17" stopTime="0.00" timeLoss="4940.73" rerouteNo="0" devices="tripinfo_f_0.38" vType="car_0" speedFactor="1.05" vaporized=""/>
    <tripinfo id="f_0.39" depart="2866.00" departLane="E0_0" departPos="7.20" departSpeed="0.00" departDelay="0.71" arrival="8476.00" arrivalLane="E5_0" arrivalPos="300.00" arrivalSpeed="12.00" duration="5610.00" routeLength="10003.87" waitingTime="4682.00" waitingCount="14" stopTime="0.00" timeLoss="4850.40" rerouteNo="0" devices="tripinfo_f_0.39" vType="car_0" speedFactor="0.95" vaporized=""/>
    <tripinfo id="f_0.40" depart="2939.00" departLane="E0_0" departPos="7.20" departSpeed="0.00" departDelay="0.24" arrival="8478.00" arrivalLane="E5_0" arrivalPos="300.00" arrivalSpeed="12.99" duration="5539.00" routeLength="10003.87" waitingTime="4602.00" waitingCount="15" stopTime="0.00" timeLoss="4816.54" rerouteNo="0" devices="tripinfo_f_0.40" vType="car_0" speedFactor="1.02" vaporized=""/>
    <tripinfo id="f_0.41" depart="3013.00" departLane="E0_0" departPos="7.20" departSpeed="0.00" departDelay="0.77" arrival="9227.00" arrivalLane="E5_0" arrivalPos="300.00" arrivalSpeed="12.47" duration="6214.00" routeLength="10003.87" waitingTime="5282.00" waitingCount="16" stopTime="0.00" timeLoss="5476.98" rerouteNo="0" devices="tripinfo_f_0.41" vType="car_0" speedFactor="0.98" vaporized=""/>
    <tripinfo id="f_0.42" depart="3086.00" departLane="E0_0" departPos="7.20" departSpeed="0.00" departDelay="0.30" arrival="9229.00" arrivalLane="E5_0" arrivalPos="300.00" arrivalSpeed="13.70" duration="6143.00" routeLength="10003.87" waitingTime="5225.00" waitingCount="21" stopTime="0.00" timeLoss="5421.60" rerouteNo="0" devices="tripinfo_f_0.42" vType="car_0" speedFactor="1.05" vaporized=""/>
    <tripinfo id="f_0.43" depart="3160.00" departLane="E0_0" departPos="7.20" departSpeed="0.00" departDelay="0.83" arrival="9231.00" arrivalLane="E5_0" arrivalPos="300.00" arrivalSpeed="13.17" duration="6071.00" routeLength="10003.87" waitingTime="5165.00" waitingCount="15" stopTime="0.00" timeLoss="5348.99" rerouteNo="0" devices="tripinfo_f_0.43" vType="car_0" speedFactor="1.02" vaporized=""/>
    <tripinfo id="f_0.44" depart="3233.00" departLane="E0_0" departPos="7.20" departSpeed="0.00" departDelay="0.36" arrival="9233.00" arrivalLane="E5_0" arrivalPos="300.00" arrivalSpeed="13.76" duration="6000.00" routeLength="10003.87" waitingTime="5095.00" waitingCount="15" stopTime="0.00" timeLoss="5278.35" rerouteNo="0" devices="tripinfo_f_0.44" vType="car_0" speedFactor="1.02" vaporized=""/>
    <tripinfo id="f_0.45" depart="3307.00" departLane="E0_0" departPos="7.20" departSpeed="0.00" departDelay="0.90" arrival="9235.00" arrivalLane="E5_0" arrivalPos="300.00" arrivalSpeed="13.06" duration="5928.00" routeLength="10003.87" waitingTime="5022.00" waitingCount="18" stopTime="0.00" timeLoss="5205.73" rerouteNo="0" devices="tripinfo_f_0.45" vType="car_0" speedFactor="1.04" vaporized=""/>
    <tripinfo id="f_0.46" depart="3380.00" departLane="E0_0" departPos="7.20" departSpeed="0.00" departDelay="0.43" arrival="9991.00" arrivalLane="E5_0" arrivalPos="300.00" arrivalSpeed="12.95" duration="6611.00" routeLength="10003.87" waitingTime="5703.00" waitingCount="21" stopTime="0.00" timeLoss="5888.71" rerouteNo="0" devices="tripinfo_f_0.46" vType="car_0" speedFactor="1.00" vaporized=""/>
    <tripinfo id="f_0.47" depart="3454.00" departLane="E0_0" departPos="7.20" departSpeed="0.00" departDelay="0.96" arrival="10012.00" arrivalLane="E5_0" arrivalPos="300.00" arrivalSpeed="12.54" duration="6558.00" routeLength="10003.87" waitingTime="5627.00" waitingCount="21" stopTime="0.00" timeLoss="5798.60" rerouteNo="0" devices="tripinfo_f_0.47" vType="car_0" speedFactor="0.95" vaporized=""/>
    <tripinfo id="f_0.48" depart="3527.00" departLane="E0_0" departPos="7.20" departSpeed="0.00" departDelay="0.49" arrival="10020.00" arrivalLane="E5_0" arrivalPos="300.00" arrivalSpeed="12.77" duration="6493.00" routeLength="10003.87" waitingTime="5544.00" waitingCount="22" stopTime="0.00" timeLoss="5723.59" rerouteNo="0" devices="tripinfo_f_0.48" vType="car_0" speedFactor="0.94" vaporized=""/>
    <tripinfo id="f_0.49" depart="3600.00" departLane="E0_0" departPos="7.20" departSpeed="0.00" departDelay="0.02" arrival="10029.00" arrivalLane="E5_0" arrivalPos="300.00" arrivalSpeed="11.61" duration="6429.00" routeLength="10003.87" waitingTime="5468.00" waitingCount="18" stopTime="0.00" timeLoss="5648.79" rerouteNo="0" devices="tripinfo_f_0.49" vType="car_0" speedFactor="0.93" vaporized=""/>
</tripinfos>
