<?xml version="1.0" encoding="UTF-8"?>

<!-- generated on 2025-01-09 14:02:22 by Eclipse SUMO sumo Version v1_20_0+0085-e155ab8699b
<configuration xmlns:xsi="http://www.w3.org/2001/XMLSchema-instance" xsi:noNamespaceSchemaLocation="http://sumo.dlr.de/xsd/sumoConfiguration.xsd">

    <input>
        <net-file value="/home/jian/sumo/project/rayRL/one_way_xml/one_way.net.xml"/>
        <route-files value="/home/jian/sumo/project/rayRL/one_way_xml/one_way.rou.xml"/>
    </input>

    <output>
        <output-prefix value="50-"/>
        <tripinfo-output value="/home/jian/sumo/project/rayRL/one_way_xml/data/default/tripinfo/tripinfo-output.xml"/>
    </output>

    <time>
        <step-length value="1.0"/>
    </time>

    <processing>
        <step-method.ballistic value="True"/>
    </processing>

    <report>
        <no-warnings value="True"/>
        <no-step-log value="True"/>
    </report>

    <traci_server>
        <remote-port value="41855"/>
    </traci_server>

    <gui_only>
        <quit-on-end value="True"/>
        <start value="True"/>
    </gui_only>

</configuration>
-->

<tripinfos xmlns:xsi="http://www.w3.org/2001/XMLSchema-instance" xsi:noNamespaceSchemaLocation="http://sumo.dlr.de/xsd/tripinfo_file.xsd">
    <tripinfo id="f_0.0" depart="0.00" departLane="E0_0" departPos="7.20" departSpeed="0.00" departDelay="0.00" arrival="1521.00" arrivalLane="E5_0" arrivalPos="300.00" arrivalSpeed="13.45" duration="1521.00" routeLength="10003.87" waitingTime="736.00" waitingCount="1" stopTime="0.00" timeLoss="798.76" rerouteNo="0" devices="tripinfo_f_0.0" vType="car_0" speedFactor="1.03" vaporized=""/>
    <tripinfo id="f_0.1" depart="72.00" departLane="E0_0" departPos="7.20" departSpeed="0.00" departDelay="0.00" arrival="2300.00" arrivalLane="E5_0" arrivalPos="300.00" arrivalSpeed="13.46" duration="2228.00" routeLength="10003.87" waitingTime="1408.00" waitingCount="2" stopTime="0.00" timeLoss="1483.84" rerouteNo="0" devices="tripinfo_f_0.1" vType="car_0" speedFactor="0.97" vaporized=""/>
    <tripinfo id="f_0.2" depart="144.00" departLane="E0_0" departPos="7.20" departSpeed="0.00" departDelay="0.00" arrival="2302.00" arrivalLane="E5_0" arrivalPos="300.00" arrivalSpeed="13.04" duration="2158.00" routeLength="10003.87" waitingTime="1337.00" waitingCount="3" stopTime="0.00" timeLoss="1436.69" rerouteNo="0" devices="tripinfo_f_0.2" vType="car_0" speedFactor="1.01" vaporized=""/>
    <tripinfo id="f_0.3" depart="216.00" departLane="E0_0" departPos="7.20" departSpeed="0.00" departDelay="0.00" arrival="2304.00" arrivalLane="E5_0" arrivalPos="300.00" arrivalSpeed="13.66" duration="2088.00" routeLength="10003.87" waitingTime="1265.00" waitingCount="2" stopTime="0.00" timeLoss="1366.25" rerouteNo="0" devices="tripinfo_f_0.3" vType="car_0" speedFactor="1.04" vaporized=""/>
    <tripinfo id="f_0.4" depart="288.00" departLane="E0_0" departPos="7.20" departSpeed="0.00" departDelay="0.00" arrival="2306.00" arrivalLane="E5_0" arrivalPos="300.00" arrivalSpeed="13.39" duration="2018.00" routeLength="10003.87" waitingTime="1208.00" waitingCount="2" stopTime="0.00" timeLoss="1296.76" rerouteNo="0" devices="tripinfo_f_0.4" vType="car_0" speedFactor="1.02" vaporized=""/>
    <tripinfo id="f_0.5" depart="360.00" departLane="E0_0" departPos="7.20" departSpeed="0.00" departDelay="0.00" arrival="3092.00" arrivalLane="E5_0" arrivalPos="300.00" arrivalSpeed="11.55" duration="2732.00" routeLength="10003.87" waitingTime="1843.00" waitingCount="3" stopTime="0.00" timeLoss="1943.77" rerouteNo="0" devices="tripinfo_f_0.5" vType="car_0" speedFactor="0.92" vaporized=""/>
    <tripinfo id="f_0.6" depart="432.00" departLane="E0_0" departPos="7.20" departSpeed="0.00" departDelay="0.00" arrival="3094.00" arrivalLane="E5_0" arrivalPos="300.00" arrivalSpeed="12.91" duration="2662.00" routeLength="10003.87" waitingTime="1774.00" waitingCount="4" stopTime="0.00" timeLoss="1940.53" rerouteNo="0" devices="tripinfo_f_0.6" vType="car_0" speedFactor="1.02" vaporized=""/>
    <tripinfo id="f_0.7" depart="504.00" departLane="E0_0" departPos="7.20" departSpeed="0.00" departDelay="0.00" arrival="3096.00" arrivalLane="E5_0" arrivalPos="300.00" arrivalSpeed="13.07" duration="2592.00" routeLength="10003.87" waitingTime="1704.00" waitingCount="4" stopTime="0.00" timeLoss="1826.66" rerouteNo="0" devices="tripinfo_f_0.7" vType="car_0" speedFactor="0.94" vaporized=""/>
    <tripinfo id="f_0.8" depart="576.00" departLane="E0_0" departPos="7.20" departSpeed="0.00" departDelay="0.00" arrival="3846.00" arrivalLane="E5_0" arrivalPos="300.00" arrivalSpeed="13.38" duration="3270.00" routeLength="10003.87" waitingTime="2419.00" waitingCount="5" stopTime="0.00" timeLoss="2525.35" rerouteNo="0" devices="tripinfo_f_0.8" vType="car_0" speedFactor="0.97" vaporized=""/>
    <tripinfo id="f_0.9" depart="648.00" departLane="E0_0" departPos="7.20" departSpeed="0.00" departDelay="0.00" arrival="3864.00" arrivalLane="E5_0" arrivalPos="300.00" arrivalSpeed="12.29" duration="3216.00" routeLength="10003.87" waitingTime="2327.00" waitingCount="5" stopTime="0.00" timeLoss="2438.56" rerouteNo="0" devices="tripinfo_f_0.9" vType="car_0" speedFactor="0.93" vaporized=""/>
    <tripinfo id="f_0.10" depart="720.00" departLane="E0_0" departPos="7.20" departSpeed="0.00" departDelay="0.00" arrival="3866.00" arrivalLane="E5_0" arrivalPos="300.00" arrivalSpeed="12.86" duration="3146.00" routeLength="10003.87" waitingTime="2253.00" waitingCount="6" stopTime="0.00" timeLoss="2424.60" rerouteNo="0" devices="tripinfo_f_0.10" vType="car_0" speedFactor="1.05" vaporized=""/>
    <tripinfo id="f_0.11" depart="792.00" departLane="E0_0" departPos="7.20" departSpeed="0.00" departDelay="0.00" arrival="3868.00" arrivalLane="E5_0" arrivalPos="300.00" arrivalSpeed="12.50" duration="3076.00" routeLength="10003.87" waitingTime="2195.00" waitingCount="3" stopTime="0.00" timeLoss="2354.21" rerouteNo="0" devices="tripinfo_f_0.11" vType="car_0" speedFactor="1.01" vaporized=""/>
    <tripinfo id="f_0.12" depart="864.00" departLane="E0_0" departPos="7.20" departSpeed="0.00" departDelay="0.00" arrival="4601.00" arrivalLane="E5_0" arrivalPos="300.00" arrivalSpeed="13.66" duration="3737.00" routeLength="10003.87" waitingTime="2902.00" waitingCount="5" stopTime="0.00" timeLoss="3015.01" rerouteNo="0" devices="tripinfo_f_0.12" vType="car_0" speedFactor="1.02" vaporized=""/>
    <tripinfo id="f_0.13" depart="936.00" departLane="E0_0" departPos="7.20" departSpeed="0.00" departDelay="0.00" arrival="4606.00" arrivalLane="E5_0" arrivalPos="300.00" arrivalSpeed="12.67" duration="3670.00" routeLength="10003.87" waitingTime="2828.00" waitingCount="6" stopTime="0.00" timeLoss="2947.76" rerouteNo="0" devices="tripinfo_f_0.13" vType="car_0" speedFactor="1.06" vaporized=""/>
    <tripinfo id="f_0.14" depart="1008.00" departLane="E0_0" departPos="7.20" departSpeed="0.00" departDelay="0.00" arrival="4609.00" arrivalLane="E5_0" arrivalPos="300.00" arrivalSpeed="12.87" duration="3601.00" routeLength="10003.87" waitingTime="2753.00" waitingCount="6" stopTime="0.00" timeLoss="2876.05" rerouteNo="0" devices="tripinfo_f_0.14" vType="car_0" speedFactor="1.00" vaporized=""/>
    <tripinfo id="f_0.15" depart="1080.00" departLane="E0_0" departPos="7.20" departSpeed="0.00" departDelay="0.00" arrival="4622.00" arrivalLane="E5_0" arrivalPos="300.00" arrivalSpeed="12.43" duration="3542.00" routeLength="10003.87" waitingTime="2676.00" waitingCount="7" stopTime="0.00" timeLoss="2792.77" rerouteNo="0" devices="tripinfo_f_0.15" vType="car_0" speedFactor="0.96" vaporized=""/>
    <tripinfo id="f_0.16" depart="1152.00" departLane="E0_0" departPos="7.20" departSpeed="0.00" departDelay="0.00" arrival="4634.00" arrivalLane="E5_0" arrivalPos="300.00" arrivalSpeed="12.64" duration="3482.00" routeLength="10003.87" waitingTime="2590.00" waitingCount="7" stopTime="0.00" timeLoss="2713.40" rerouteNo="0" devices="tripinfo_f_0.16" vType="car_0" speedFactor="0.94" vaporized=""/>
    <tripinfo id="f_0.17" depart="1224.00" departLane="E0_0" departPos="7.20" departSpeed="0.00" departDelay="0.00" arrival="5383.00" arrivalLane="E5_0" arrivalPos="300.00" arrivalSpeed="12.68" duration="4159.00" routeLength="10003.87" waitingTime="3292.00" waitingCount="9" stopTime="0.00" timeLoss="3415.20" rerouteNo="0" devices="tripinfo_f_0.17" vType="car_0" speedFactor="0.97" vaporized=""/>
    <tripinfo id="f_0.18" depart="1296.00" departLane="E0_0" departPos="7.20" departSpeed="0.00" departDelay="0.00" arrival="5385.00" arrivalLane="E5_0" arrivalPos="300.00" arrivalSpeed="12.73" duration="4089.00" routeLength="10003.87" waitingTime="3223.00" waitingCount="6" stopTime="0.00" timeLoss="3343.49" rerouteNo="0" devices="tripinfo_f_0.18" vType="car_0" speedFactor="0.97" vaporized=""/>
    <tripinfo id="f_0.19" depart="1368.00" departLane="E0_0" departPos="7.20" departSpeed="0.00" departDelay="0.00" arrival="5387.00" arrivalLane="E5_0" arrivalPos="300.00" arrivalSpeed="13.66" duration="4019.00" routeLength="10003.87" waitingTime="3149.00" waitingCount="9" stopTime="0.00" timeLoss="3297.05" rerouteNo="0" devices="tripinfo_f_0.19" vType="car_0" speedFactor="1.08" vaporized=""/>
    <tripinfo id="f_0.20" depart="1440.00" departLane="E0_0" departPos="7.20" departSpeed="0.00" departDelay="0.00" arrival="5389.00" arrivalLane="E5_0" arrivalPos="300.00" arrivalSpeed="13.51" duration="3949.00" routeLength="10003.87" waitingTime="3071.00" waitingCount="10" stopTime="0.00" timeLoss="3226.83" rerouteNo="0" devices="tripinfo_f_0.20" vType="car_0" speedFactor="1.01" vaporized=""/>
    <tripinfo id="f_0.21" depart="1512.00" departLane="E0_0" departPos="7.20" departSpeed="0.00" departDelay="0.00" arrival="5391.00" arrivalLane="E5_0" arrivalPos="300.00" arrivalSpeed="12.64" duration="3879.00" routeLength="10003.87" waitingTime="3003.00" waitingCount="10" stopTime="0.00" timeLoss="3157.50" rerouteNo="0" devices="tripinfo_f_0.21" vType="car_0" speedFactor="1.01" vaporized=""/>
    <tripinfo id="f_0.22" depart="1584.00" departLane="E0_0" departPos="7.20" departSpeed="0.00" departDelay="0.00" arrival="6146.00" arrivalLane="E5_0" arrivalPos="300.00" arrivalSpeed="12.67" duration="4562.00" routeLength="10003.87" waitingTime="3712.00" waitingCount="7" stopTime="0.00" timeLoss="3830.43" rerouteNo="0" devices="tripinfo_f_0.22" vType="car_0" speedFactor="0.99" vaporized=""/>
    <tripinfo id="f_0.23" depart="1656.00" departLane="E0_0" departPos="7.20" departSpeed="0.00" departDelay="0.00" arrival="6164.00" arrivalLane="E5_0" arrivalPos="300.00" arrivalSpeed="12.93" duration="4508.00" routeLength="10003.87" waitingTime="3619.00" waitingCount="9" stopTime="0.00" timeLoss="3743.80" rerouteNo="0" devices="tripinfo_f_0.23" vType="car_0" speedFactor="0.94" vaporized=""/>
    <tripinfo id="f_0.24" depart="1728.00" departLane="E0_0" departPos="7.20" departSpeed="0.00" departDelay="0.00" arrival="6180.00" arrivalLane="E5_0" arrivalPos="300.00" arrivalSpeed="12.67" duration="4452.00" routeLength="10003.87" waitingTime="3526.00" waitingCount="8" stopTime="0.00" timeLoss="3661.62" rerouteNo="0" devices="tripinfo_f_0.24" vType="car_0" speedFactor="0.91" vaporized=""/>
    <tripinfo id="f_0.25" depart="1800.00" departLane="E0_0" departPos="7.20" departSpeed="0.00" departDelay="0.00" arrival="6182.00" arrivalLane="E5_0" arrivalPos="300.00" arrivalSpeed="12.64" duration="4382.00" routeLength="10003.87" waitingTime="3460.00" waitingCount="9" stopTime="0.00" timeLoss="3611.05" rerouteNo="0" devices="tripinfo_f_0.25" vType="car_0" speedFactor="0.94" vaporized=""/>
    <tripinfo id="f_0.26" depart="1872.00" departLane="E0_0" departPos="7.20" departSpeed="0.00" departDelay="0.00" arrival="6925.00" arrivalLane="E5_0" arrivalPos="300.00" arrivalSpeed="13.23" duration="5053.00" routeLength="10003.87" waitingTime="4164.00" waitingCount="11" stopTime="0.00" timeLoss="4299.92" rerouteNo="0" devices="tripinfo_f_0.26" vType="car_0" speedFactor="0.96" vaporized=""/>
    <tripinfo id="f_0.27" depart="1944.00" departLane="E0_0" departPos="7.20" departSpeed="0.00" departDelay="0.00" arrival="6927.00" arrivalLane="E5_0" arrivalPos="300.00" arrivalSpeed="12.25" duration="4983.00" routeLength="10003.87" waitingTime="4081.00" waitingCount="13" stopTime="0.00" timeLoss="4242.14" rerouteNo="0" devices="tripinfo_f_0.27" vType="car_0" speedFactor="0.97" vaporized=""/>
    <tripinfo id="f_0.28" depart="2016.00" departLane="E0_0" departPos="7.20" departSpeed="0.00" departDelay="0.00" arrival="6929.00" arrivalLane="E5_0" arrivalPos="300.00" arrivalSpeed="12.78" duration="4913.00" routeLength="10003.87" waitingTime="4011.00" waitingCount="15" stopTime="0.00" timeLoss="4191.66" rerouteNo="0" devices="tripinfo_f_0.28" vType="car_0" speedFactor="1.07" vaporized=""/>
    <tripinfo id="f_0.29" depart="2088.00" departLane="E0_0" departPos="7.20" departSpeed="0.00" departDelay="0.00" arrival="6933.00" arrivalLane="E5_0" arrivalPos="300.00" arrivalSpeed="12.45" duration="4845.00" routeLength="10003.87" waitingTime="3942.00" waitingCount="16" stopTime="0.00" timeLoss="4097.57" rerouteNo="0" devices="tripinfo_f_0.29" vType="car_0" speedFactor="0.97" vaporized=""/>
    <tripinfo id="f_0.30" depart="2160.00" departLane="E0_0" departPos="7.20" departSpeed="0.00" departDelay="0.00" arrival="6935.00" arrivalLane="E5_0" arrivalPos="300.00" arrivalSpeed="13.89" duration="4775.00" routeLength="10003.87" waitingTime="3883.00" waitingCount="13" stopTime="0.00" timeLoss="4052.48" rerouteNo="0" devices="tripinfo_f_0.30" vType="car_0" speedFactor="1.09" vaporized=""/>
    <tripinfo id="f_0.31" depart="2232.00" departLane="E0_0" departPos="7.20" departSpeed="0.00" departDelay="0.00" arrival="7682.00" arrivalLane="E5_0" arrivalPos="300.00" arrivalSpeed="13.14" duration="5450.00" routeLength="10003.87" waitingTime="4557.00" waitingCount="16" stopTime="0.00" timeLoss="4727.61" rerouteNo="0" devices="tripinfo_f_0.31" vType="car_0" speedFactor="1.08" vaporized=""/>
    <tripinfo id="f_0.32" depart="2304.00" departLane="E0_0" departPos="7.20" departSpeed="0.00" departDelay="0.00" arrival="7685.00" arrivalLane="E5_0" arrivalPos="300.00" arrivalSpeed="13.89" duration="5381.00" routeLength="10003.87" waitingTime="4477.00" waitingCount="16" stopTime="0.00" timeLoss="4658.69" rerouteNo="0" devices="tripinfo_f_0.32" vType="car_0" speedFactor="1.00" vaporized=""/>
    <tripinfo id="f_0.33" depart="2376.00" departLane="E0_0" departPos="7.20" departSpeed="0.00" departDelay="0.00" arrival="7688.00" arrivalLane="E5_0" arrivalPos="300.00" arrivalSpeed="13.23" duration="5312.00" routeLength="10003.87" waitingTime="4430.00" waitingCount="12" stopTime="0.00" timeLoss="4590.75" rerouteNo="0" devices="tripinfo_f_0.33" vType="car_0" speedFactor="1.09" vaporized=""/>
    <tripinfo id="f_0.34" depart="2448.00" departLane="E0_0" departPos="7.20" departSpeed="0.00" departDelay="0.00" arrival="7694.00" arrivalLane="E5_0" arrivalPos="300.00" arrivalSpeed="12.62" duration="5246.00" routeLength="10003.87" waitingTime="4358.00" waitingCount="12" stopTime="0.00" timeLoss="4522.10" rerouteNo="0" devices="tripinfo_f_0.34" vType="car_0" speedFactor="1.00" vaporized=""/>
    <tripinfo id="f_0.35" depart="2520.00" departLane="E0_0" departPos="7.20" departSpeed="0.00" departDelay="0.00" arrival="7696.00" arrivalLane="E5_0" arrivalPos="300.00" arrivalSpeed="13.39" duration="5176.00" routeLength="10003.87" waitingTime="4287.00" waitingCount="12" stopTime="0.00" timeLoss="4454.32" rerouteNo="0" devices="tripinfo_f_0.35" vType="car_0" speedFactor="1.01" vaporized=""/>
    <tripinfo id="f_0.36" depart="2592.00" departLane="E0_0" departPos="7.20" departSpeed="0.00" departDelay="0.00" arrival="8455.00" arrivalLane="E5_0" arrivalPos="300.00" arrivalSpeed="13.37" duration="5863.00" routeLength="10003.87" waitingTime="4968.00" waitingCount="14" stopTime="0.00" timeLoss="5132.16" rerouteNo="0" devices="tripinfo_f_0.36" vType="car_0" speedFactor="0.99" vaporized=""/>
    <tripinfo id="f_0.37" depart="2664.00" departLane="E0_0" departPos="7.20" departSpeed="0.00" departDelay="0.00" arrival="8457.00" arrivalLane="E5_0" arrivalPos="300.00" arrivalSpeed="12.99" duration="5793.00" routeLength="10003.87" waitingTime="4899.00" waitingCount="13" stopTime="0.00" timeLoss="5071.77" rerouteNo="0" devices="tripinfo_f_0.37" vType="car_0" speedFactor="1.09" vaporized=""/>
    <tripinfo id="f_0.38" depart="2736.00" departLane="E0_0" departPos="7.20" departSpeed="0.00" departDelay="0.00" arrival="8459.00" arrivalLane="E5_0" arrivalPos="300.00" arrivalSpeed="12.87" duration="5723.00" routeLength="10003.87" waitingTime="4825.00" waitingCount="17" stopTime="0.00" timeLoss="5001.44" rerouteNo="0" devices="tripinfo_f_0.38" vType="car_0" speedFactor="1.05" vaporized=""/>
    <tripinfo id="f_0.39" depart="2808.00" departLane="E0_0" departPos="7.20" departSpeed="0.00" departDelay="0.00" arrival="8478.00" arrivalLane="E5_0" arrivalPos="300.00" arrivalSpeed="12.31" duration="5670.00" routeLength="10003.87" waitingTime="4745.00" waitingCount="17" stopTime="0.00" timeLoss="4910.84" rerouteNo="0" devices="tripinfo_f_0.39" vType="car_0" speedFactor="0.95" vaporized=""/>
    <tripinfo id="f_0.40" depart="2880.00" departLane="E0_0" departPos="7.20" departSpeed="0.00" departDelay="0.00" arrival="8480.00" arrivalLane="E5_0" arrivalPos="300.00" arrivalSpeed="12.64" duration="5600.00" routeLength="10003.87" waitingTime="4687.00" waitingCount="18" stopTime="0.00" timeLoss="4878.06" rerouteNo="0" devices="tripinfo_f_0.40" vType="car_0" speedFactor="1.02" vaporized=""/>
    <tripinfo id="f_0.41" depart="2952.00" departLane="E0_0" departPos="7.20" departSpeed="0.00" departDelay="0.00" arrival="9229.00" arrivalLane="E5_0" arrivalPos="300.00" arrivalSpeed="13.35" duration="6277.00" routeLength="10003.87" waitingTime="5354.00" waitingCount="19" stopTime="0.00" timeLoss="5539.45" rerouteNo="0" devices="tripinfo_f_0.41" vType="car_0" speedFactor="0.98" vaporized=""/>
    <tripinfo id="f_0.42" depart="3024.00" departLane="E0_0" departPos="7.20" departSpeed="0.00" departDelay="0.00" arrival="9231.00" arrivalLane="E5_0" arrivalPos="300.00" arrivalSpeed="13.12" duration="6207.00" routeLength="10003.87" waitingTime="5288.00" waitingCount="19" stopTime="0.00" timeLoss="5485.21" rerouteNo="0" devices="tripinfo_f_0.42" vType="car_0" speedFactor="1.05" vaporized=""/>
    <tripinfo id="f_0.43" depart="3138.00" departLane="E0_0" departPos="7.20" departSpeed="0.00" departDelay="42.00" arrival="9233.00" arrivalLane="E5_0" arrivalPos="300.00" arrivalSpeed="13.56" duration="6095.00" routeLength="10003.87" waitingTime="5184.00" waitingCount="16" stopTime="0.00" timeLoss="5372.63" rerouteNo="0" devices="tripinfo_f_0.43" vType="car_0" speedFactor="1.02" vaporized=""/>
    <tripinfo id="f_0.44" depart="3168.00" departLane="E0_0" departPos="7.20" departSpeed="0.00" departDelay="0.00" arrival="9235.00" arrivalLane="E5_0" arrivalPos="300.00" arrivalSpeed="12.80" duration="6067.00" routeLength="10003.87" waitingTime="5167.00" waitingCount="20" stopTime="0.00" timeLoss="5345.10" rerouteNo="0" devices="tripinfo_f_0.44" vType="car_0" speedFactor="1.02" vaporized=""/>
    <tripinfo id="f_0.45" depart="3240.00" departLane="E0_0" departPos="7.20" departSpeed="0.00" departDelay="0.00" arrival="9237.00" arrivalLane="E5_0" arrivalPos="300.00" arrivalSpeed="12.95" duration="5997.00" routeLength="10003.87" waitingTime="5093.00" waitingCount="23" stopTime="0.00" timeLoss="5275.14" rerouteNo="0" devices="tripinfo_f_0.45" vType="car_0" speedFactor="1.04" vaporized=""/>
    <tripinfo id="f_0.46" depart="3312.00" departLane="E0_0" departPos="7.20" departSpeed="0.00" departDelay="0.00" arrival="9990.00" arrivalLane="E5_0" arrivalPos="300.00" arrivalSpeed="12.60" duration="6678.00" routeLength="10003.87" waitingTime="5766.00" waitingCount="19" stopTime="0.00" timeLoss="5955.01" rerouteNo="0" devices="tripinfo_f_0.46" vType="car_0" speedFactor="1.00" vaporized=""/>
    <tripinfo id="f_0.47" depart="3384.00" departLane="E0_0" departPos="7.20" departSpeed="0.00" departDelay="0.00" arrival="10011.00" arrivalLane="E5_0" arrivalPos="300.00" arrivalSpeed="12.31" duration="6627.00" routeLength="10003.87" waitingTime="5691.00" waitingCount="23" stopTime="0.00" timeLoss="5867.77" rerouteNo="0" devices="tripinfo_f_0.47" vType="car_0" speedFactor="0.95" vaporized=""/>
    <tripinfo id="f_0.48" depart="3910.00" departLane="E0_0" departPos="7.20" departSpeed="0.00" departDelay="454.00" arrival="10021.00" arrivalLane="E5_0" arrivalPos="300.00" arrivalSpeed="11.74" duration="6111.00" routeLength="10003.87" waitingTime="5161.00" waitingCount="23" stopTime="0.00" timeLoss="5342.24" rerouteNo="0" devices="tripinfo_f_0.48" vType="car_0" speedFactor="0.94" vaporized=""/>
    <tripinfo id="f_0.49" depart="3916.00" departLane="E0_0" departPos="7.20" departSpeed="0.00" departDelay="388.00" arrival="10787.00" arrivalLane="E5_0" arrivalPos="300.00" arrivalSpeed="11.83" duration="6871.00" routeLength="10003.87" waitingTime="5905.00" waitingCount="19" stopTime="0.00" timeLoss="6090.85" rerouteNo="0" devices="tripinfo_f_0.49" vType="car_0" speedFactor="0.93" vaporized=""/>
</tripinfos>
