<?xml version="1.0" encoding="UTF-8"?>

<!-- generated on 2025-01-09 13:58:46 by Eclipse SUMO sumo Version v1_20_0+0085-e155ab8699b
<configuration xmlns:xsi="http://www.w3.org/2001/XMLSchema-instance" xsi:noNamespaceSchemaLocation="http://sumo.dlr.de/xsd/sumoConfiguration.xsd">

    <input>
        <net-file value="/home/jian/sumo/project/rayRL/one_way_xml/one_way.net.xml"/>
        <route-files value="/home/jian/sumo/project/rayRL/one_way_xml/one_way.rou.xml"/>
    </input>

    <output>
        <output-prefix value="8-"/>
        <tripinfo-output value="/home/jian/sumo/project/rayRL/one_way_xml/data/default/tripinfo/tripinfo-output.xml"/>
    </output>

    <time>
        <step-length value="1.0"/>
    </time>

    <processing>
        <step-method.ballistic value="True"/>
    </processing>

    <report>
        <no-warnings value="True"/>
        <no-step-log value="True"/>
    </report>

    <traci_server>
        <remote-port value="43639"/>
    </traci_server>

    <gui_only>
        <quit-on-end value="True"/>
        <start value="True"/>
    </gui_only>

</configuration>
-->

<tripinfos xmlns:xsi="http://www.w3.org/2001/XMLSchema-instance" xsi:noNamespaceSchemaLocation="http://sumo.dlr.de/xsd/tripinfo_file.xsd">
    <tripinfo id="f_0.0" depart="0.00" departLane="E0_0" departPos="7.20" departSpeed="0.00" departDelay="0.00" arrival="1520.00" arrivalLane="E5_0" arrivalPos="300.00" arrivalSpeed="13.45" duration="1520.00" routeLength="10003.87" waitingTime="736.00" waitingCount="1" stopTime="0.00" timeLoss="798.05" rerouteNo="0" devices="tripinfo_f_0.0" vType="car_0" speedFactor="1.03" vaporized=""/>
    <tripinfo id="f_0.1" depart="450.00" departLane="E0_0" departPos="7.20" departSpeed="0.00" departDelay="0.00" arrival="2300.00" arrivalLane="E5_0" arrivalPos="300.00" arrivalSpeed="12.53" duration="1850.00" routeLength="10003.87" waitingTime="1025.00" waitingCount="3" stopTime="0.00" timeLoss="1104.99" rerouteNo="0" devices="tripinfo_f_0.1" vType="car_0" speedFactor="0.97" vaporized=""/>
    <tripinfo id="f_0.2" depart="900.00" departLane="E0_0" departPos="7.20" departSpeed="0.00" departDelay="0.00" arrival="2302.00" arrivalLane="E5_0" arrivalPos="300.00" arrivalSpeed="13.13" duration="1402.00" routeLength="10003.87" waitingTime="606.00" waitingCount="1" stopTime="0.00" timeLoss="680.46" rerouteNo="0" devices="tripinfo_f_0.2" vType="car_0" speedFactor="1.01" vaporized=""/>
    <tripinfo id="f_0.3" depart="1350.00" departLane="E0_0" departPos="7.20" departSpeed="0.00" departDelay="0.00" arrival="3060.00" arrivalLane="E5_0" arrivalPos="300.00" arrivalSpeed="13.66" duration="1710.00" routeLength="10003.87" waitingTime="904.00" waitingCount="2" stopTime="0.00" timeLoss="987.99" rerouteNo="0" devices="tripinfo_f_0.3" vType="car_0" speedFactor="1.04" vaporized=""/>
    <tripinfo id="f_0.4" depart="1800.00" departLane="E0_0" departPos="7.20" departSpeed="0.00" departDelay="0.00" arrival="3062.00" arrivalLane="E5_0" arrivalPos="300.00" arrivalSpeed="13.39" duration="1262.00" routeLength="10003.87" waitingTime="473.00" waitingCount="1" stopTime="0.00" timeLoss="539.73" rerouteNo="0" devices="tripinfo_f_0.4" vType="car_0" speedFactor="1.02" vaporized=""/>
    <tripinfo id="f_0.5" depart="2250.00" departLane="E0_0" departPos="7.20" departSpeed="0.00" departDelay="0.00" arrival="3864.00" arrivalLane="E5_0" arrivalPos="300.00" arrivalSpeed="11.64" duration="1614.00" routeLength="10003.87" waitingTime="742.00" waitingCount="2" stopTime="0.00" timeLoss="825.19" rerouteNo="0" devices="tripinfo_f_0.5" vType="car_0" speedFactor="0.92" vaporized=""/>
    <tripinfo id="f_0.6" depart="2700.00" departLane="E0_0" departPos="7.20" departSpeed="0.00" departDelay="0.00" arrival="3866.00" arrivalLane="E5_0" arrivalPos="300.00" arrivalSpeed="13.69" duration="1166.00" routeLength="10003.87" waitingTime="345.00" waitingCount="1" stopTime="0.00" timeLoss="443.38" rerouteNo="0" devices="tripinfo_f_0.6" vType="car_0" speedFactor="1.02" vaporized=""/>
    <tripinfo id="f_0.7" depart="3150.00" departLane="E0_0" departPos="7.20" departSpeed="0.00" departDelay="0.00" arrival="5392.00" arrivalLane="E5_0" arrivalPos="300.00" arrivalSpeed="12.53" duration="2242.00" routeLength="10003.87" waitingTime="1403.00" waitingCount="2" stopTime="0.00" timeLoss="1476.04" rerouteNo="0" devices="tripinfo_f_0.7" vType="car_0" speedFactor="0.94" vaporized=""/>
</tripinfos>
