<?xml version="1.0" encoding="UTF-8"?>

<!-- generated on 2025-01-09 13:58:49 by Eclipse SUMO sumo Version v1_20_0+0085-e155ab8699b
<configuration xmlns:xsi="http://www.w3.org/2001/XMLSchema-instance" xsi:noNamespaceSchemaLocation="http://sumo.dlr.de/xsd/sumoConfiguration.xsd">

    <input>
        <net-file value="/home/jian/sumo/project/rayRL/one_way_xml/one_way.net.xml"/>
        <route-files value="/home/jian/sumo/project/rayRL/one_way_xml/one_way.rou.xml"/>
    </input>

    <output>
        <output-prefix value="9-"/>
        <tripinfo-output value="/home/jian/sumo/project/rayRL/one_way_xml/data/default/tripinfo/tripinfo-output.xml"/>
    </output>

    <time>
        <step-length value="1.0"/>
    </time>

    <processing>
        <step-method.ballistic value="True"/>
    </processing>

    <report>
        <no-warnings value="True"/>
        <no-step-log value="True"/>
    </report>

    <traci_server>
        <remote-port value="55029"/>
    </traci_server>

    <gui_only>
        <quit-on-end value="True"/>
        <start value="True"/>
    </gui_only>

</configuration>
-->

<tripinfos xmlns:xsi="http://www.w3.org/2001/XMLSchema-instance" xsi:noNamespaceSchemaLocation="http://sumo.dlr.de/xsd/tripinfo_file.xsd">
    <tripinfo id="f_0.0" depart="0.00" departLane="E0_0" departPos="7.20" departSpeed="0.00" departDelay="0.00" arrival="1519.00" arrivalLane="E5_0" arrivalPos="300.00" arrivalSpeed="13.45" duration="1519.00" routeLength="10003.87" waitingTime="736.00" waitingCount="1" stopTime="0.00" timeLoss="797.22" rerouteNo="0" devices="tripinfo_f_0.0" vType="car_0" speedFactor="1.03" vaporized=""/>
    <tripinfo id="f_0.1" depart="400.00" departLane="E0_0" departPos="7.20" departSpeed="0.00" departDelay="0.00" arrival="2301.00" arrivalLane="E5_0" arrivalPos="300.00" arrivalSpeed="12.62" duration="1901.00" routeLength="10003.87" waitingTime="1075.00" waitingCount="4" stopTime="0.00" timeLoss="1156.43" rerouteNo="0" devices="tripinfo_f_0.1" vType="car_0" speedFactor="0.97" vaporized=""/>
    <tripinfo id="f_0.2" depart="800.00" departLane="E0_0" departPos="7.20" departSpeed="0.00" departDelay="0.00" arrival="2303.00" arrivalLane="E5_0" arrivalPos="300.00" arrivalSpeed="12.72" duration="1503.00" routeLength="10003.87" waitingTime="705.00" waitingCount="1" stopTime="0.00" timeLoss="781.24" rerouteNo="0" devices="tripinfo_f_0.2" vType="car_0" speedFactor="1.01" vaporized=""/>
    <tripinfo id="f_0.3" depart="1200.00" departLane="E0_0" departPos="7.20" departSpeed="0.00" departDelay="0.00" arrival="2305.00" arrivalLane="E5_0" arrivalPos="300.00" arrivalSpeed="13.63" duration="1105.00" routeLength="10003.87" waitingTime="307.00" waitingCount="2" stopTime="0.00" timeLoss="382.63" rerouteNo="0" devices="tripinfo_f_0.3" vType="car_0" speedFactor="1.04" vaporized=""/>
    <tripinfo id="f_0.4" depart="1600.00" departLane="E0_0" departPos="7.20" departSpeed="0.00" departDelay="0.00" arrival="3063.00" arrivalLane="E5_0" arrivalPos="300.00" arrivalSpeed="13.39" duration="1463.00" routeLength="10003.87" waitingTime="675.00" waitingCount="1" stopTime="0.00" timeLoss="740.78" rerouteNo="0" devices="tripinfo_f_0.4" vType="car_0" speedFactor="1.02" vaporized=""/>
    <tripinfo id="f_0.5" depart="2000.00" departLane="E0_0" departPos="7.20" departSpeed="0.00" departDelay="0.00" arrival="3863.00" arrivalLane="E5_0" arrivalPos="300.00" arrivalSpeed="11.53" duration="1863.00" routeLength="10003.87" waitingTime="990.00" waitingCount="2" stopTime="0.00" timeLoss="1074.75" rerouteNo="0" devices="tripinfo_f_0.5" vType="car_0" speedFactor="0.92" vaporized=""/>
    <tripinfo id="f_0.6" depart="2400.00" departLane="E0_0" departPos="7.20" departSpeed="0.00" departDelay="0.00" arrival="3865.00" arrivalLane="E5_0" arrivalPos="300.00" arrivalSpeed="13.69" duration="1465.00" routeLength="10003.87" waitingTime="647.00" waitingCount="1" stopTime="0.00" timeLoss="743.37" rerouteNo="0" devices="tripinfo_f_0.6" vType="car_0" speedFactor="1.02" vaporized=""/>
    <tripinfo id="f_0.7" depart="2800.00" departLane="E0_0" departPos="7.20" departSpeed="0.00" departDelay="0.00" arrival="4620.00" arrivalLane="E5_0" arrivalPos="300.00" arrivalSpeed="13.07" duration="1820.00" routeLength="10003.87" waitingTime="976.00" waitingCount="2" stopTime="0.00" timeLoss="1054.45" rerouteNo="0" devices="tripinfo_f_0.7" vType="car_0" speedFactor="0.94" vaporized=""/>
    <tripinfo id="f_0.8" depart="3200.00" departLane="E0_0" departPos="7.20" departSpeed="0.00" departDelay="0.00" arrival="5382.00" arrivalLane="E5_0" arrivalPos="300.00" arrivalSpeed="12.89" duration="2182.00" routeLength="10003.87" waitingTime="1358.00" waitingCount="3" stopTime="0.00" timeLoss="1436.90" rerouteNo="0" devices="tripinfo_f_0.8" vType="car_0" speedFactor="0.97" vaporized=""/>
</tripinfos>
