<?xml version="1.0" encoding="UTF-8"?>

<!-- generated on 2025-01-04 16:24:09 by Eclipse SUMO GUI Version 1.21.0
<sumoConfiguration xmlns:xsi="http://www.w3.org/2001/XMLSchema-instance" xsi:noNamespaceSchemaLocation="http://sumo.dlr.de/xsd/sumoConfiguration.xsd">

    <input>
        <net-file value="D:\github\rayRL&#45;&#45;&#45;&#45;-2024-11-23-\rayRL\one_way_xml\one_way.net.xml"/>
        <route-files value="D:\github\rayRL&#45;&#45;&#45;&#45;-2024-11-23-\rayRL\one_way_xml\one_way.rou.xml"/>
    </input>

    <output>
        <output-prefix value="1-"/>
        <tripinfo-output value="D:\github\rayRL&#45;&#45;&#45;&#45;-2024-11-23-\rayRL\one_way_xml\data/ppo/tripinfo/tripinfo-output.xml"/>
    </output>

    <time>
        <step-length value="1.0"/>
    </time>

</sumoConfiguration>
-->

<tripinfos xmlns:xsi="http://www.w3.org/2001/XMLSchema-instance" xsi:noNamespaceSchemaLocation="http://sumo.dlr.de/xsd/tripinfo_file.xsd">
    <tripinfo id="f_0.0" depart="0.00" departLane="E0_0" departPos="7.20" departSpeed="0.00" departDelay="0.00" arrival="1519.00" arrivalLane="E5_0" arrivalPos="300.00" arrivalSpeed="13.51" duration="1519.00" routeLength="10003.87" waitingTime="736.00" waitingCount="1" stopTime="0.00" timeLoss="797.89" rerouteNo="0" devices="tripinfo_f_0.0" vType="car_0" speedFactor="1.03" vaporized=""/>
    <tripinfo id="f_0.1" depart="90.00" departLane="E0_0" departPos="7.20" departSpeed="0.00" departDelay="0.00" arrival="2301.00" arrivalLane="E5_0" arrivalPos="300.00" arrivalSpeed="13.16" duration="2211.00" routeLength="10003.87" waitingTime="1388.00" waitingCount="2" stopTime="0.00" timeLoss="1466.54" rerouteNo="0" devices="tripinfo_f_0.1" vType="car_0" speedFactor="0.97" vaporized=""/>
    <tripinfo id="f_0.2" depart="180.00" departLane="E0_0" departPos="7.20" departSpeed="0.00" departDelay="0.00" arrival="2303.00" arrivalLane="E5_0" arrivalPos="300.00" arrivalSpeed="12.85" duration="2123.00" routeLength="10003.87" waitingTime="1299.00" waitingCount="3" stopTime="0.00" timeLoss="1402.09" rerouteNo="0" devices="tripinfo_f_0.2" vType="car_0" speedFactor="1.01" vaporized=""/>
    <tripinfo id="f_0.3" depart="270.00" departLane="E0_0" departPos="7.20" departSpeed="0.00" departDelay="0.00" arrival="2305.00" arrivalLane="E5_0" arrivalPos="300.00" arrivalSpeed="12.92" duration="2035.00" routeLength="10003.87" waitingTime="1206.00" waitingCount="4" stopTime="0.00" timeLoss="1313.45" rerouteNo="0" devices="tripinfo_f_0.3" vType="car_0" speedFactor="1.04" vaporized=""/>
    <tripinfo id="f_0.4" depart="360.00" departLane="E0_0" departPos="7.20" departSpeed="0.00" departDelay="0.00" arrival="2307.00" arrivalLane="E5_0" arrivalPos="300.00" arrivalSpeed="12.95" duration="1947.00" routeLength="10003.87" waitingTime="1137.00" waitingCount="3" stopTime="0.00" timeLoss="1225.47" rerouteNo="0" devices="tripinfo_f_0.4" vType="car_0" speedFactor="1.02" vaporized=""/>
    <tripinfo id="f_0.5" depart="450.00" departLane="E0_0" departPos="7.20" departSpeed="0.00" departDelay="0.00" arrival="3092.00" arrivalLane="E5_0" arrivalPos="300.00" arrivalSpeed="11.42" duration="2642.00" routeLength="10003.87" waitingTime="1756.00" waitingCount="4" stopTime="0.00" timeLoss="1853.82" rerouteNo="0" devices="tripinfo_f_0.5" vType="car_0" speedFactor="0.92" vaporized=""/>
    <tripinfo id="f_0.6" depart="540.00" departLane="E0_0" departPos="7.20" departSpeed="0.00" departDelay="0.00" arrival="3094.00" arrivalLane="E5_0" arrivalPos="300.00" arrivalSpeed="12.75" duration="2554.00" routeLength="10003.87" waitingTime="1667.00" waitingCount="8" stopTime="0.00" timeLoss="1832.21" rerouteNo="0" devices="tripinfo_f_0.6" vType="car_0" speedFactor="1.02" vaporized=""/>
    <tripinfo id="f_0.7" depart="630.00" departLane="E0_0" departPos="7.20" departSpeed="0.00" departDelay="0.00" arrival="3096.00" arrivalLane="E5_0" arrivalPos="300.00" arrivalSpeed="12.72" duration="2466.00" routeLength="10003.87" waitingTime="1576.00" waitingCount="6" stopTime="0.00" timeLoss="1701.18" rerouteNo="0" devices="tripinfo_f_0.7" vType="car_0" speedFactor="0.94" vaporized=""/>
    <tripinfo id="f_0.8" depart="720.00" departLane="E0_0" departPos="7.20" departSpeed="0.00" departDelay="0.00" arrival="3098.00" arrivalLane="E5_0" arrivalPos="300.00" arrivalSpeed="13.34" duration="2378.00" routeLength="10003.87" waitingTime="1483.00" waitingCount="8" stopTime="0.00" timeLoss="1633.03" rerouteNo="0" devices="tripinfo_f_0.8" vType="car_0" speedFactor="0.97" vaporized=""/>
    <tripinfo id="f_0.9" depart="810.00" departLane="E0_0" departPos="7.20" departSpeed="0.00" departDelay="0.00" arrival="3857.00" arrivalLane="E5_0" arrivalPos="300.00" arrivalSpeed="11.77" duration="3047.00" routeLength="10003.87" waitingTime="2174.00" waitingCount="3" stopTime="0.00" timeLoss="2270.22" rerouteNo="0" devices="tripinfo_f_0.9" vType="car_0" speedFactor="0.93" vaporized=""/>
    <tripinfo id="f_0.10" depart="900.00" departLane="E0_0" departPos="7.20" departSpeed="0.00" departDelay="0.00" arrival="3859.00" arrivalLane="E5_0" arrivalPos="300.00" arrivalSpeed="13.17" duration="2959.00" routeLength="10003.87" waitingTime="2083.00" waitingCount="5" stopTime="0.00" timeLoss="2237.95" rerouteNo="0" devices="tripinfo_f_0.10" vType="car_0" speedFactor="1.05" vaporized=""/>
    <tripinfo id="f_0.11" depart="990.00" departLane="E0_0" departPos="7.20" departSpeed="0.00" departDelay="0.00" arrival="3861.00" arrivalLane="E5_0" arrivalPos="300.00" arrivalSpeed="13.72" duration="2871.00" routeLength="10003.87" waitingTime="1990.00" waitingCount="6" stopTime="0.00" timeLoss="2149.85" rerouteNo="0" devices="tripinfo_f_0.11" vType="car_0" speedFactor="1.01" vaporized=""/>
    <tripinfo id="f_0.12" depart="1080.00" departLane="E0_0" departPos="7.20" departSpeed="0.00" departDelay="0.00" arrival="3863.00" arrivalLane="E5_0" arrivalPos="300.00" arrivalSpeed="13.34" duration="2783.00" routeLength="10003.87" waitingTime="1908.00" waitingCount="4" stopTime="0.00" timeLoss="2061.98" rerouteNo="0" devices="tripinfo_f_0.12" vType="car_0" speedFactor="1.02" vaporized=""/>
    <tripinfo id="f_0.13" depart="1170.00" departLane="E0_0" departPos="7.20" departSpeed="0.00" departDelay="0.00" arrival="3865.00" arrivalLane="E5_0" arrivalPos="300.00" arrivalSpeed="13.07" duration="2695.00" routeLength="10003.87" waitingTime="1818.00" waitingCount="5" stopTime="0.00" timeLoss="1973.86" rerouteNo="0" devices="tripinfo_f_0.13" vType="car_0" speedFactor="1.06" vaporized=""/>
    <tripinfo id="f_0.14" depart="1260.00" departLane="E0_0" departPos="7.20" departSpeed="0.00" departDelay="0.00" arrival="4603.00" arrivalLane="E5_0" arrivalPos="300.00" arrivalSpeed="13.29" duration="3343.00" routeLength="10003.87" waitingTime="2496.00" waitingCount="7" stopTime="0.00" timeLoss="2618.93" rerouteNo="0" devices="tripinfo_f_0.14" vType="car_0" speedFactor="1.00" vaporized=""/>
    <tripinfo id="f_0.15" depart="1350.00" departLane="E0_0" departPos="7.20" departSpeed="0.00" departDelay="0.00" arrival="4617.00" arrivalLane="E5_0" arrivalPos="300.00" arrivalSpeed="12.29" duration="3267.00" routeLength="10003.87" waitingTime="2407.00" waitingCount="8" stopTime="0.00" timeLoss="2518.01" rerouteNo="0" devices="tripinfo_f_0.15" vType="car_0" speedFactor="0.96" vaporized=""/>
    <tripinfo id="f_0.16" depart="1440.00" departLane="E0_0" departPos="7.20" departSpeed="0.00" departDelay="0.00" arrival="4632.00" arrivalLane="E5_0" arrivalPos="300.00" arrivalSpeed="12.17" duration="3192.00" routeLength="10003.87" waitingTime="2298.00" waitingCount="6" stopTime="0.00" timeLoss="2423.06" rerouteNo="0" devices="tripinfo_f_0.16" vType="car_0" speedFactor="0.94" vaporized=""/>
    <tripinfo id="f_0.17" depart="1530.00" departLane="E0_0" departPos="7.20" departSpeed="0.00" departDelay="0.00" arrival="4633.00" arrivalLane="E5_0" arrivalPos="300.00" arrivalSpeed="12.38" duration="3103.00" routeLength="10003.87" waitingTime="2201.00" waitingCount="7" stopTime="0.00" timeLoss="2359.81" rerouteNo="0" devices="tripinfo_f_0.17" vType="car_0" speedFactor="0.97" vaporized=""/>
    <tripinfo id="f_0.18" depart="1620.00" departLane="E0_0" departPos="7.20" departSpeed="0.00" departDelay="0.00" arrival="4635.00" arrivalLane="E5_0" arrivalPos="300.00" arrivalSpeed="13.03" duration="3015.00" routeLength="10003.87" waitingTime="2137.00" waitingCount="5" stopTime="0.00" timeLoss="2269.72" rerouteNo="0" devices="tripinfo_f_0.18" vType="car_0" speedFactor="0.97" vaporized=""/>
    <tripinfo id="f_0.19" depart="1710.00" departLane="E0_0" departPos="7.20" departSpeed="0.00" departDelay="0.00" arrival="5370.00" arrivalLane="E5_0" arrivalPos="300.00" arrivalSpeed="12.99" duration="3660.00" routeLength="10003.87" waitingTime="2820.00" waitingCount="13" stopTime="0.00" timeLoss="2938.79" rerouteNo="0" devices="tripinfo_f_0.19" vType="car_0" speedFactor="1.08" vaporized=""/>
    <tripinfo id="f_0.20" depart="1800.00" departLane="E0_0" departPos="7.20" departSpeed="0.00" departDelay="0.00" arrival="5375.00" arrivalLane="E5_0" arrivalPos="300.00" arrivalSpeed="12.97" duration="3575.00" routeLength="10003.87" waitingTime="2721.00" waitingCount="8" stopTime="0.00" timeLoss="2854.05" rerouteNo="0" devices="tripinfo_f_0.20" vType="car_0" speedFactor="1.01" vaporized=""/>
    <tripinfo id="f_0.21" depart="1890.00" departLane="E0_0" departPos="7.20" departSpeed="0.00" departDelay="0.00" arrival="5380.00" arrivalLane="E5_0" arrivalPos="300.00" arrivalSpeed="12.62" duration="3490.00" routeLength="10003.87" waitingTime="2635.00" waitingCount="9" stopTime="0.00" timeLoss="2768.30" rerouteNo="0" devices="tripinfo_f_0.21" vType="car_0" speedFactor="1.01" vaporized=""/>
    <tripinfo id="f_0.22" depart="1980.00" departLane="E0_0" departPos="7.20" departSpeed="0.00" departDelay="0.00" arrival="5386.00" arrivalLane="E5_0" arrivalPos="300.00" arrivalSpeed="13.09" duration="3406.00" routeLength="10003.87" waitingTime="2549.00" waitingCount="10" stopTime="0.00" timeLoss="2674.95" rerouteNo="0" devices="tripinfo_f_0.22" vType="car_0" speedFactor="0.99" vaporized=""/>
    <tripinfo id="f_0.23" depart="2070.00" departLane="E0_0" departPos="7.20" departSpeed="0.00" departDelay="0.00" arrival="5404.00" arrivalLane="E5_0" arrivalPos="300.00" arrivalSpeed="12.54" duration="3334.00" routeLength="10003.87" waitingTime="2446.00" waitingCount="7" stopTime="0.00" timeLoss="2570.86" rerouteNo="0" devices="tripinfo_f_0.23" vType="car_0" speedFactor="0.94" vaporized=""/>
    <tripinfo id="f_0.24" depart="2160.00" departLane="E0_0" departPos="7.20" departSpeed="0.00" departDelay="0.00" arrival="6174.00" arrivalLane="E5_0" arrivalPos="300.00" arrivalSpeed="12.05" duration="4014.00" routeLength="10003.87" waitingTime="3096.00" waitingCount="10" stopTime="0.00" timeLoss="3223.62" rerouteNo="0" devices="tripinfo_f_0.24" vType="car_0" speedFactor="0.91" vaporized=""/>
    <tripinfo id="f_0.25" depart="2250.00" departLane="E0_0" departPos="7.20" departSpeed="0.00" departDelay="0.00" arrival="6176.00" arrivalLane="E5_0" arrivalPos="300.00" arrivalSpeed="12.09" duration="3926.00" routeLength="10003.87" waitingTime="3000.00" waitingCount="11" stopTime="0.00" timeLoss="3154.77" rerouteNo="0" devices="tripinfo_f_0.25" vType="car_0" speedFactor="0.94" vaporized=""/>
    <tripinfo id="f_0.26" depart="2340.00" departLane="E0_0" departPos="7.20" departSpeed="0.00" departDelay="0.00" arrival="6178.00" arrivalLane="E5_0" arrivalPos="300.00" arrivalSpeed="13.18" duration="3838.00" routeLength="10003.87" waitingTime="2924.00" waitingCount="10" stopTime="0.00" timeLoss="3085.42" rerouteNo="0" devices="tripinfo_f_0.26" vType="car_0" speedFactor="0.96" vaporized=""/>
    <tripinfo id="f_0.27" depart="2430.00" departLane="E0_0" departPos="7.20" departSpeed="0.00" departDelay="0.00" arrival="6180.00" arrivalLane="E5_0" arrivalPos="300.00" arrivalSpeed="13.46" duration="3750.00" routeLength="10003.87" waitingTime="2842.00" waitingCount="13" stopTime="0.00" timeLoss="3009.59" rerouteNo="0" devices="tripinfo_f_0.27" vType="car_0" speedFactor="0.97" vaporized=""/>
    <tripinfo id="f_0.28" depart="2520.00" departLane="E0_0" departPos="7.20" departSpeed="0.00" departDelay="0.00" arrival="6182.00" arrivalLane="E5_0" arrivalPos="300.00" arrivalSpeed="13.76" duration="3662.00" routeLength="10003.87" waitingTime="2792.00" waitingCount="10" stopTime="0.00" timeLoss="2940.44" rerouteNo="0" devices="tripinfo_f_0.28" vType="car_0" speedFactor="1.07" vaporized=""/>
    <tripinfo id="f_0.29" depart="2610.00" departLane="E0_0" departPos="7.20" departSpeed="0.00" departDelay="0.00" arrival="6922.00" arrivalLane="E5_0" arrivalPos="300.00" arrivalSpeed="12.77" duration="4312.00" routeLength="10003.87" waitingTime="3432.00" waitingCount="10" stopTime="0.00" timeLoss="3564.85" rerouteNo="0" devices="tripinfo_f_0.29" vType="car_0" speedFactor="0.97" vaporized=""/>
    <tripinfo id="f_0.30" depart="2700.00" departLane="E0_0" departPos="7.20" departSpeed="0.00" departDelay="0.00" arrival="6924.00" arrivalLane="E5_0" arrivalPos="300.00" arrivalSpeed="12.84" duration="4224.00" routeLength="10003.87" waitingTime="3349.00" waitingCount="13" stopTime="0.00" timeLoss="3502.48" rerouteNo="0" devices="tripinfo_f_0.30" vType="car_0" speedFactor="1.09" vaporized=""/>
    <tripinfo id="f_0.31" depart="2790.00" departLane="E0_0" departPos="7.20" departSpeed="0.00" departDelay="0.00" arrival="6926.00" arrivalLane="E5_0" arrivalPos="300.00" arrivalSpeed="13.30" duration="4136.00" routeLength="10003.87" waitingTime="3251.00" waitingCount="10" stopTime="0.00" timeLoss="3413.91" rerouteNo="0" devices="tripinfo_f_0.31" vType="car_0" speedFactor="1.08" vaporized=""/>
    <tripinfo id="f_0.32" depart="2880.00" departLane="E0_0" departPos="7.20" departSpeed="0.00" departDelay="0.00" arrival="6928.00" arrivalLane="E5_0" arrivalPos="300.00" arrivalSpeed="13.89" duration="4048.00" routeLength="10003.87" waitingTime="3164.00" waitingCount="13" stopTime="0.00" timeLoss="3326.27" rerouteNo="0" devices="tripinfo_f_0.32" vType="car_0" speedFactor="1.00" vaporized=""/>
    <tripinfo id="f_0.33" depart="2970.00" departLane="E0_0" departPos="7.20" departSpeed="0.00" departDelay="0.00" arrival="7681.00" arrivalLane="E5_0" arrivalPos="300.00" arrivalSpeed="13.15" duration="4711.00" routeLength="10003.87" waitingTime="3838.00" waitingCount="10" stopTime="0.00" timeLoss="3988.74" rerouteNo="0" devices="tripinfo_f_0.33" vType="car_0" speedFactor="1.09" vaporized=""/>
    <tripinfo id="f_0.34" depart="3060.00" departLane="E0_0" departPos="7.20" departSpeed="0.00" departDelay="0.00" arrival="7683.00" arrivalLane="E5_0" arrivalPos="300.00" arrivalSpeed="13.11" duration="4623.00" routeLength="10003.87" waitingTime="3740.00" waitingCount="12" stopTime="0.00" timeLoss="3899.51" rerouteNo="0" devices="tripinfo_f_0.34" vType="car_0" speedFactor="1.00" vaporized=""/>
    <tripinfo id="f_0.35" depart="3150.00" departLane="E0_0" departPos="7.20" departSpeed="0.00" departDelay="0.00" arrival="7686.00" arrivalLane="E5_0" arrivalPos="300.00" arrivalSpeed="13.70" duration="4536.00" routeLength="10003.87" waitingTime="3670.00" waitingCount="11" stopTime="0.00" timeLoss="3814.70" rerouteNo="0" devices="tripinfo_f_0.35" vType="car_0" speedFactor="1.01" vaporized=""/>
    <tripinfo id="f_0.36" depart="3240.00" departLane="E0_0" departPos="7.20" departSpeed="0.00" departDelay="0.00" arrival="7695.00" arrivalLane="E5_0" arrivalPos="300.00" arrivalSpeed="13.15" duration="4455.00" routeLength="10003.87" waitingTime="3579.00" waitingCount="12" stopTime="0.00" timeLoss="3723.93" rerouteNo="0" devices="tripinfo_f_0.36" vType="car_0" speedFactor="0.99" vaporized=""/>
    <tripinfo id="f_0.37" depart="3330.00" departLane="E0_0" departPos="7.20" departSpeed="0.00" departDelay="0.00" arrival="8452.00" arrivalLane="E5_0" arrivalPos="300.00" arrivalSpeed="13.30" duration="5122.00" routeLength="10003.87" waitingTime="4239.00" waitingCount="14" stopTime="0.00" timeLoss="4400.54" rerouteNo="0" devices="tripinfo_f_0.37" vType="car_0" speedFactor="1.09" vaporized=""/>
    <tripinfo id="f_0.38" depart="3420.00" departLane="E0_0" departPos="7.20" departSpeed="0.00" departDelay="0.00" arrival="8454.00" arrivalLane="E5_0" arrivalPos="300.00" arrivalSpeed="13.55" duration="5034.00" routeLength="10003.87" waitingTime="4152.00" waitingCount="12" stopTime="0.00" timeLoss="4312.62" rerouteNo="0" devices="tripinfo_f_0.38" vType="car_0" speedFactor="1.05" vaporized=""/>
    <tripinfo id="f_0.39" depart="3510.00" departLane="E0_0" departPos="7.20" departSpeed="0.00" departDelay="0.00" arrival="8475.00" arrivalLane="E5_0" arrivalPos="300.00" arrivalSpeed="12.63" duration="4965.00" routeLength="10003.87" waitingTime="4052.00" waitingCount="14" stopTime="0.00" timeLoss="4205.40" rerouteNo="0" devices="tripinfo_f_0.39" vType="car_0" speedFactor="0.95" vaporized=""/>
</tripinfos>
